LAMMPS (29 Aug 2024)
OMP_NUM_THREADS environment is not set. Defaulting to 1 thread. (src/comm.cpp:98)
  using 1 OpenMP thread(s) per MPI task

#---------------------------- Atomic setup ------------------------------------#
units            metal
timestep         0.001
boundary         p p p
lattice          fcc 4.046
Lattice spacing in x,y,z = 4.046 4.046 4.046
region           sim_box block 0 10 0 10 0 10
create_box       1 sim_box
Created orthogonal box = (0 0 0) to (40.46 40.46 40.46)
  1 by 1 by 1 MPI processor grid
create_atoms     1 box
Created 4000 atoms
  using lattice units in orthogonal box = (0 0 0) to (40.46 40.46 40.46)
  create_atoms CPU = 0.001 seconds

pair_style       eam/fs                                             # interatomic potential (Lennard-Jones, EAM, etc.)
pair_coeff       * * ${potentials_dir}/al_eam.fs Al # interatomic potential parameters (ex. eam.alloy Cu_u3.eam)
pair_coeff       * * md/potentials/al_eam.fs Al 
pair_modify      tail yes
neigh_modify     delay 0                                                       # neighbor list update frequency (0 = every timestep)
mass             1 26.981539                                                 # atomic mass
variable         rnd equal round(random(0,999999,42))

#----------------------------- Equilibriation ---------------------------------#
velocity         all create 1343.52 ${rnd} dist gaussian              # initial velocities
velocity         all create 1343.52 420940 dist gaussian              
fix              f2 all nph iso 0 0 1.0        # barostat
variable         rnd equal round(random(0,999999,0))
fix              f3 all temp/csvr 1343.52 1343.52 0.1 ${rnd} # thermostat
fix              f3 all temp/csvr 1343.52 1343.52 0.1 53464 
run              10000                                           # equilibriation run
Neighbor list info ...
  update: every = 1 steps, delay = 0 steps, check = yes
  max neighbors/atom: 2000, page size: 100000
  master list distance cutoff = 8.5
  ghost atom cutoff = 8.5
  binsize = 4.25, bins = 10 10 10
  1 neighbor lists, perpetual/occasional/extra = 1 0 0
  (1) pair eam/fs, perpetual
      attributes: half, newton on
      pair build: half/bin/atomonly/newton
      stencil: half/bin/3d
      bin: standard
Per MPI rank memory allocation (min/avg/max) = 4.462 | 4.462 | 4.462 Mbytes
   Step          Temp          E_pair         E_mol          TotEng         Press          Volume    
         0   1343.52       -13642.623      0             -12948.143      10791.839      66233.489    
     10000   1309.9382     -12287.367      0             -11610.245     -308.70037      78272.903    
Loop time of 91.8513 on 1 procs for 10000 steps with 4000 atoms

Performance: 9.407 ns/day, 2.551 hours/ns, 108.872 timesteps/s, 435.486 katom-step/s
99.6% CPU use with 1 MPI tasks x 1 OpenMP threads

MPI task timing breakdown:
Section |  min time  |  avg time  |  max time  |%varavg| %total
---------------------------------------------------------------
Pair    | 88.267     | 88.267     | 88.267     |   0.0 | 96.10
Neigh   | 2.0381     | 2.0381     | 2.0381     |   0.0 |  2.22
Comm    | 0.2914     | 0.2914     | 0.2914     |   0.0 |  0.32
Output  | 5.1857e-05 | 5.1857e-05 | 5.1857e-05 |   0.0 |  0.00
Modify  | 1.1275     | 1.1275     | 1.1275     |   0.0 |  1.23
Other   |            | 0.1277     |            |       |  0.14

Nlocal:           4000 ave        4000 max        4000 min
Histogram: 1 0 0 0 0 0 0 0 0 0
Nghost:           6901 ave        6901 max        6901 min
Histogram: 1 0 0 0 0 0 0 0 0 0
Neighs:         261921 ave      261921 max      261921 min
Histogram: 1 0 0 0 0 0 0 0 0 0

Total # of neighbors = 261921
Ave neighs/atom = 65.48025
Neighbor list builds = 270
Dangerous builds = 0

#----------------------------- Run simulation ---------------------------------#
dump             d1 all custom 10000 md/data/al_fcc/dump_1.44.gz id type x y z # snapshots
run              90000
Per MPI rank memory allocation (min/avg/max) = 4.846 | 4.846 | 4.846 Mbytes
   Step          Temp          E_pair         E_mol          TotEng         Press          Volume    
     10000   1309.9382     -12287.367      0             -11610.245     -308.70037      78272.903    
    100000   1332.0819     -12279.606      0             -11591.038     -643.1188       78458.732    
Loop time of 825.297 on 1 procs for 90000 steps with 4000 atoms

Performance: 9.422 ns/day, 2.547 hours/ns, 109.052 timesteps/s, 436.206 katom-step/s
99.6% CPU use with 1 MPI tasks x 1 OpenMP threads

MPI task timing breakdown:
Section |  min time  |  avg time  |  max time  |%varavg| %total
---------------------------------------------------------------
Pair    | 792.86     | 792.86     | 792.86     |   0.0 | 96.07
Neigh   | 18.389     | 18.389     | 18.389     |   0.0 |  2.23
Comm    | 2.5827     | 2.5827     | 2.5827     |   0.0 |  0.31
Output  | 0.15569    | 0.15569    | 0.15569    |   0.0 |  0.02
Modify  | 10.142     | 10.142     | 10.142     |   0.0 |  1.23
Other   |            | 1.171      |            |       |  0.14

Nlocal:           4000 ave        4000 max        4000 min
Histogram: 1 0 0 0 0 0 0 0 0 0
Nghost:           6916 ave        6916 max        6916 min
Histogram: 1 0 0 0 0 0 0 0 0 0
Neighs:         261375 ave      261375 max      261375 min
Histogram: 1 0 0 0 0 0 0 0 0 0

Total # of neighbors = 261375
Ave neighs/atom = 65.34375
Neighbor list builds = 2461
Dangerous builds = 0
undump           d1
min_modify       line forcezero
minimize         0 0 100000 100000                                                                               # minimize energy
Per MPI rank memory allocation (min/avg/max) = 5.971 | 5.971 | 5.971 Mbytes
   Step          Temp          E_pair         E_mol          TotEng         Press          Volume    
    100000   1332.0819     -12279.606      0             -11591.038     -643.1188       78458.732    
    102227   1332.0819     -13174.194      0             -12485.626     -12002.529      78458.732    
Loop time of 34.3689 on 1 procs for 2227 steps with 4000 atoms

99.6% CPU use with 1 MPI tasks x 1 OpenMP threads

Minimization stats:
  Stopping criterion = linesearch alpha is zero
  Energy initial, next-to-last, final = 
     -12279.6063544081  -13174.1938349219  -13174.1938349219
  Force two-norm initial, final = 64.791167 6.8728834e-05
  Force max component initial, final = 4.5473639 1.2043769e-05
  Final line search alpha, max atom move = 0.18541488 2.233094e-06
  Iterations, force evaluations = 2227 3611

MPI task timing breakdown:
Section |  min time  |  avg time  |  max time  |%varavg| %total
---------------------------------------------------------------
Pair    | 33.637     | 33.637     | 33.637     |   0.0 | 97.87
Neigh   | 0.4083     | 0.4083     | 0.4083     |   0.0 |  1.19
Comm    | 0.10269    | 0.10269    | 0.10269    |   0.0 |  0.30
Output  | 0          | 0          | 0          |   0.0 |  0.00
Modify  | 0          | 0          | 0          |   0.0 |  0.00
Other   |            | 0.221      |            |       |  0.64

Nlocal:           4000 ave        4000 max        4000 min
Histogram: 1 0 0 0 0 0 0 0 0 0
Nghost:           6962 ave        6962 max        6962 min
Histogram: 1 0 0 0 0 0 0 0 0 0
Neighs:         267938 ave      267938 max      267938 min
Histogram: 1 0 0 0 0 0 0 0 0 0

Total # of neighbors = 267938
Ave neighs/atom = 66.9845
Neighbor list builds = 56
Dangerous builds = 0
write_dump       all custom md/data/al_fcc/dump_1.44_relaxed.gz id type x y z
#------------------------------------------------------------------------------#
Total wall time: 0:15:51
