LAMMPS (29 Aug 2024)
OMP_NUM_THREADS environment is not set. Defaulting to 1 thread. (src/comm.cpp:98)
  using 1 OpenMP thread(s) per MPI task

#---------------------------- Atomic setup ------------------------------------#
units            metal
timestep         0.001
boundary         p p p
lattice          fcc 4.046
Lattice spacing in x,y,z = 4.046 4.046 4.046
region           sim_box block 0 10 0 10 0 10
create_box       1 sim_box
Created orthogonal box = (0 0 0) to (40.46 40.46 40.46)
  1 by 1 by 1 MPI processor grid
create_atoms     1 box
Created 4000 atoms
  using lattice units in orthogonal box = (0 0 0) to (40.46 40.46 40.46)
  create_atoms CPU = 0.001 seconds

pair_style       eam/fs                                             # interatomic potential (Lennard-Jones, EAM, etc.)
pair_coeff       * * ${potentials_dir}/al_eam.fs Al # interatomic potential parameters (ex. eam.alloy Cu_u3.eam)
pair_coeff       * * md/potentials/al_eam.fs Al 
pair_modify      tail yes
neigh_modify     delay 0                                                       # neighbor list update frequency (0 = every timestep)
mass             1 26.981539                                                 # atomic mass
variable         rnd equal round(random(0,999999,42))

#----------------------------- Equilibriation ---------------------------------#
velocity         all create 1380.84 ${rnd} dist gaussian              # initial velocities
velocity         all create 1380.84 420940 dist gaussian              
fix              f2 all nph iso 0 0 1.0        # barostat
variable         rnd equal round(random(0,999999,0))
fix              f3 all temp/csvr 1380.84 1380.84 0.1 ${rnd} # thermostat
fix              f3 all temp/csvr 1380.84 1380.84 0.1 53464 
run              10000                                           # equilibriation run
Neighbor list info ...
  update: every = 1 steps, delay = 0 steps, check = yes
  max neighbors/atom: 2000, page size: 100000
  master list distance cutoff = 8.5
  ghost atom cutoff = 8.5
  binsize = 4.25, bins = 10 10 10
  1 neighbor lists, perpetual/occasional/extra = 1 0 0
  (1) pair eam/fs, perpetual
      attributes: half, newton on
      pair build: half/bin/atomonly/newton
      stencil: half/bin/3d
      bin: standard
Per MPI rank memory allocation (min/avg/max) = 4.462 | 4.462 | 4.462 Mbytes
   Step          Temp          E_pair         E_mol          TotEng         Press          Volume    
         0   1380.84       -13642.623      0             -12928.851      11102.938      66233.489    
     10000   1337.8049     -12265.921      0             -11574.394      327.98612      78293.073    
Loop time of 90.4509 on 1 procs for 10000 steps with 4000 atoms

Performance: 9.552 ns/day, 2.513 hours/ns, 110.557 timesteps/s, 442.229 katom-step/s
99.5% CPU use with 1 MPI tasks x 1 OpenMP threads

MPI task timing breakdown:
Section |  min time  |  avg time  |  max time  |%varavg| %total
---------------------------------------------------------------
Pair    | 86.898     | 86.898     | 86.898     |   0.0 | 96.07
Neigh   | 2.0293     | 2.0293     | 2.0293     |   0.0 |  2.24
Comm    | 0.28664    | 0.28664    | 0.28664    |   0.0 |  0.32
Output  | 5.7077e-05 | 5.7077e-05 | 5.7077e-05 |   0.0 |  0.00
Modify  | 1.1072     | 1.1072     | 1.1072     |   0.0 |  1.22
Other   |            | 0.1295     |            |       |  0.14

Nlocal:           4000 ave        4000 max        4000 min
Histogram: 1 0 0 0 0 0 0 0 0 0
Nghost:           6891 ave        6891 max        6891 min
Histogram: 1 0 0 0 0 0 0 0 0 0
Neighs:         261613 ave      261613 max      261613 min
Histogram: 1 0 0 0 0 0 0 0 0 0

Total # of neighbors = 261613
Ave neighs/atom = 65.40325
Neighbor list builds = 274
Dangerous builds = 0

#----------------------------- Run simulation ---------------------------------#
dump             d1 all custom 10000 md/data/al_fcc/dump_1.48.gz id type x y z # snapshots
run              90000
Per MPI rank memory allocation (min/avg/max) = 4.846 | 4.846 | 4.846 Mbytes
   Step          Temp          E_pair         E_mol          TotEng         Press          Volume    
     10000   1337.8049     -12265.921      0             -11574.394      327.98612      78293.073    
    100000   1367.0432     -12260.869      0             -11554.229     -1480.5622      78917.713    
Loop time of 807.247 on 1 procs for 90000 steps with 4000 atoms

Performance: 9.633 ns/day, 2.492 hours/ns, 111.490 timesteps/s, 445.960 katom-step/s
99.5% CPU use with 1 MPI tasks x 1 OpenMP threads

MPI task timing breakdown:
Section |  min time  |  avg time  |  max time  |%varavg| %total
---------------------------------------------------------------
Pair    | 775.19     | 775.19     | 775.19     |   0.0 | 96.03
Neigh   | 18.24      | 18.24      | 18.24      |   0.0 |  2.26
Comm    | 2.5495     | 2.5495     | 2.5495     |   0.0 |  0.32
Output  | 0.14943    | 0.14943    | 0.14943    |   0.0 |  0.02
Modify  | 9.9735     | 9.9735     | 9.9735     |   0.0 |  1.24
Other   |            | 1.141      |            |       |  0.14

Nlocal:           4000 ave        4000 max        4000 min
Histogram: 1 0 0 0 0 0 0 0 0 0
Nghost:           6839 ave        6839 max        6839 min
Histogram: 1 0 0 0 0 0 0 0 0 0
Neighs:         259911 ave      259911 max      259911 min
Histogram: 1 0 0 0 0 0 0 0 0 0

Total # of neighbors = 259911
Ave neighs/atom = 64.97775
Neighbor list builds = 2497
Dangerous builds = 0
undump           d1
min_modify       line forcezero
minimize         0 0 100000 100000                                                                               # minimize energy
Per MPI rank memory allocation (min/avg/max) = 5.971 | 5.971 | 5.971 Mbytes
   Step          Temp          E_pair         E_mol          TotEng         Press          Volume    
    100000   1367.0432     -12260.869      0             -11554.229     -1480.5622      78917.713    
    102314   1367.0432     -13168.375      0             -12461.735     -9984.0785      78917.713    
Loop time of 44.1212 on 1 procs for 2314 steps with 4000 atoms

99.5% CPU use with 1 MPI tasks x 1 OpenMP threads

Minimization stats:
  Stopping criterion = linesearch alpha is zero
  Energy initial, next-to-last, final = 
     -12260.8690447272  -13168.3747337834  -13168.3747337834
  Force two-norm initial, final = 64.707536 5.2591002e-05
  Force max component initial, final = 3.733584 1.4393195e-05
  Final line search alpha, max atom move = 1.8351336e-09 2.6413436e-14
  Iterations, force evaluations = 2314 3722

MPI task timing breakdown:
Section |  min time  |  avg time  |  max time  |%varavg| %total
---------------------------------------------------------------
Pair    | 43.363     | 43.363     | 43.363     |   0.0 | 98.28
Neigh   | 0.42539    | 0.42539    | 0.42539    |   0.0 |  0.96
Comm    | 0.10647    | 0.10647    | 0.10647    |   0.0 |  0.24
Output  | 0          | 0          | 0          |   0.0 |  0.00
Modify  | 0          | 0          | 0          |   0.0 |  0.00
Other   |            | 0.226      |            |       |  0.51

Nlocal:           4000 ave        4000 max        4000 min
Histogram: 1 0 0 0 0 0 0 0 0 0
Nghost:           7203 ave        7203 max        7203 min
Histogram: 1 0 0 0 0 0 0 0 0 0
Neighs:         266423 ave      266423 max      266423 min
Histogram: 1 0 0 0 0 0 0 0 0 0

Total # of neighbors = 266423
Ave neighs/atom = 66.60575
Neighbor list builds = 60
Dangerous builds = 0
write_dump       all custom md/data/al_fcc/dump_1.48_relaxed.gz id type x y z
#------------------------------------------------------------------------------#
Total wall time: 0:15:41
