LAMMPS (29 Aug 2024)
OMP_NUM_THREADS environment is not set. Defaulting to 1 thread. (src/comm.cpp:98)
  using 1 OpenMP thread(s) per MPI task

#---------------------------- Atomic setup ------------------------------------#
units            metal
timestep         0.001
boundary         p p p
lattice          fcc 4.046
Lattice spacing in x,y,z = 4.046 4.046 4.046
region           sim_box block 0 10 0 10 0 10
create_box       1 sim_box
Created orthogonal box = (0 0 0) to (40.46 40.46 40.46)
  1 by 1 by 1 MPI processor grid
create_atoms     1 box
Created 4000 atoms
  using lattice units in orthogonal box = (0 0 0) to (40.46 40.46 40.46)
  create_atoms CPU = 0.001 seconds

pair_style       eam/fs                                             # interatomic potential (Lennard-Jones, EAM, etc.)
pair_coeff       * * ${potentials_dir}/al_eam.fs Al # interatomic potential parameters (ex. eam.alloy Cu_u3.eam)
pair_coeff       * * md/potentials/al_eam.fs Al 
pair_modify      tail yes
neigh_modify     delay 0                                                       # neighbor list update frequency (0 = every timestep)
mass             1 26.981539                                                 # atomic mass
variable         rnd equal round(random(0,999999,42))

#----------------------------- Equilibriation ---------------------------------#
velocity         all create 149.28 ${rnd} dist gaussian              # initial velocities
velocity         all create 149.28 420940 dist gaussian              
fix              f2 all nph iso 0 0 1.0        # barostat
variable         rnd equal round(random(0,999999,0))
fix              f3 all temp/csvr 149.28 149.28 0.1 ${rnd} # thermostat
fix              f3 all temp/csvr 149.28 149.28 0.1 53464 
run              10000                                           # equilibriation run
Neighbor list info ...
  update: every = 1 steps, delay = 0 steps, check = yes
  max neighbors/atom: 2000, page size: 100000
  master list distance cutoff = 8.5
  ghost atom cutoff = 8.5
  binsize = 4.25, bins = 10 10 10
  1 neighbor lists, perpetual/occasional/extra = 1 0 0
  (1) pair eam/fs, perpetual
      attributes: half, newton on
      pair build: half/bin/atomonly/newton
      stencil: half/bin/3d
      bin: standard
Per MPI rank memory allocation (min/avg/max) = 4.462 | 4.462 | 4.462 Mbytes
   Step          Temp          E_pair         E_mol          TotEng         Press          Volume    
         0   149.28        -13642.623      0             -13565.459      836.65875      66233.489    
     10000   145.63867     -13568.018      0             -13492.736      796.57341      66867.661    
Loop time of 90.3794 on 1 procs for 10000 steps with 4000 atoms

Performance: 9.560 ns/day, 2.511 hours/ns, 110.645 timesteps/s, 442.579 katom-step/s
99.3% CPU use with 1 MPI tasks x 1 OpenMP threads

MPI task timing breakdown:
Section |  min time  |  avg time  |  max time  |%varavg| %total
---------------------------------------------------------------
Pair    | 88.86      | 88.86      | 88.86      |   0.0 | 98.32
Neigh   | 0          | 0          | 0          |   0.0 |  0.00
Comm    | 0.28656    | 0.28656    | 0.28656    |   0.0 |  0.32
Output  | 0.00017253 | 0.00017253 | 0.00017253 |   0.0 |  0.00
Modify  | 1.1155     | 1.1155     | 1.1155     |   0.0 |  1.23
Other   |            | 0.117      |            |       |  0.13

Nlocal:           4000 ave        4000 max        4000 min
Histogram: 1 0 0 0 0 0 0 0 0 0
Nghost:           8195 ave        8195 max        8195 min
Histogram: 1 0 0 0 0 0 0 0 0 0
Neighs:         280000 ave      280000 max      280000 min
Histogram: 1 0 0 0 0 0 0 0 0 0

Total # of neighbors = 280000
Ave neighs/atom = 70
Neighbor list builds = 0
Dangerous builds = 0

#----------------------------- Run simulation ---------------------------------#
dump             d1 all custom 10000 md/data/al_fcc/dump_0.16.gz id type x y z # snapshots
run              90000
Per MPI rank memory allocation (min/avg/max) = 4.462 | 4.462 | 4.462 Mbytes
   Step          Temp          E_pair         E_mol          TotEng         Press          Volume    
     10000   145.63867     -13568.018      0             -13492.736      796.57341      66867.661    
    100000   148.91601     -13567.208      0             -13490.231      14.726754      66930.002    
Loop time of 840.813 on 1 procs for 90000 steps with 4000 atoms

Performance: 9.248 ns/day, 2.595 hours/ns, 107.039 timesteps/s, 428.157 katom-step/s
99.5% CPU use with 1 MPI tasks x 1 OpenMP threads

MPI task timing breakdown:
Section |  min time  |  avg time  |  max time  |%varavg| %total
---------------------------------------------------------------
Pair    | 827.2      | 827.2      | 827.2      |   0.0 | 98.38
Neigh   | 0          | 0          | 0          |   0.0 |  0.00
Comm    | 2.5806     | 2.5806     | 2.5806     |   0.0 |  0.31
Output  | 0.14413    | 0.14413    | 0.14413    |   0.0 |  0.02
Modify  | 9.8782     | 9.8782     | 9.8782     |   0.0 |  1.17
Other   |            | 1.013      |            |       |  0.12

Nlocal:           4000 ave        4000 max        4000 min
Histogram: 1 0 0 0 0 0 0 0 0 0
Nghost:           8195 ave        8195 max        8195 min
Histogram: 1 0 0 0 0 0 0 0 0 0
Neighs:         289334 ave      289334 max      289334 min
Histogram: 1 0 0 0 0 0 0 0 0 0

Total # of neighbors = 289334
Ave neighs/atom = 72.3335
Neighbor list builds = 0
Dangerous builds = 0
undump           d1
min_modify       line forcezero
minimize         0 0 100000 100000                                                                               # minimize energy
Per MPI rank memory allocation (min/avg/max) = 5.587 | 5.587 | 5.587 Mbytes
   Step          Temp          E_pair         E_mol          TotEng         Press          Volume    
    100000   148.91601     -13567.208      0             -13490.231      14.726754      66930.002    
    100061   148.91601     -13640.72       0             -13563.744     -6999.7438      66930.002    
Loop time of 1.26339 on 1 procs for 61 steps with 4000 atoms

99.6% CPU use with 1 MPI tasks x 1 OpenMP threads

Minimization stats:
  Stopping criterion = linesearch alpha is zero
  Energy initial, next-to-last, final = 
     -13567.2075440531  -13640.7204381192  -13640.7204381192
  Force two-norm initial, final = 25.374667 1.020083e-05
  Force max component initial, final = 0.91484844 3.6183848e-07
  Final line search alpha, max atom move = 0.0037404683 1.3534454e-09
  Iterations, force evaluations = 61 136

MPI task timing breakdown:
Section |  min time  |  avg time  |  max time  |%varavg| %total
---------------------------------------------------------------
Pair    | 1.2529     | 1.2529     | 1.2529     |   0.0 | 99.17
Neigh   | 0          | 0          | 0          |   0.0 |  0.00
Comm    | 0.0038933  | 0.0038933  | 0.0038933  |   0.0 |  0.31
Output  | 0          | 0          | 0          |   0.0 |  0.00
Modify  | 0          | 0          | 0          |   0.0 |  0.00
Other   |            | 0.006629   |            |       |  0.52

Nlocal:           4000 ave        4000 max        4000 min
Histogram: 1 0 0 0 0 0 0 0 0 0
Nghost:           8195 ave        8195 max        8195 min
Histogram: 1 0 0 0 0 0 0 0 0 0
Neighs:         288570 ave      288570 max      288570 min
Histogram: 1 0 0 0 0 0 0 0 0 0

Total # of neighbors = 288570
Ave neighs/atom = 72.1425
Neighbor list builds = 0
Dangerous builds = 0
write_dump       all custom md/data/al_fcc/dump_0.16_relaxed.gz id type x y z
#------------------------------------------------------------------------------#
Total wall time: 0:15:32
