LAMMPS (29 Aug 2024)
OMP_NUM_THREADS environment is not set. Defaulting to 1 thread. (src/comm.cpp:98)
  using 1 OpenMP thread(s) per MPI task
Lattice spacing in x,y,z = 4.046 4.046 4.046
Created orthogonal box = (0 0 0) to (40.46 40.46 40.46)
  1 by 1 by 1 MPI processor grid
Created 4000 atoms
  using lattice units in orthogonal box = (0 0 0) to (40.46 40.46 40.46)
  create_atoms CPU = 0.001 seconds
Neighbor list info ...
  update: every = 1 steps, delay = 0 steps, check = yes
  max neighbors/atom: 2000, page size: 100000
  master list distance cutoff = 8.5
  ghost atom cutoff = 8.5
  binsize = 4.25, bins = 10 10 10
  1 neighbor lists, perpetual/occasional/extra = 1 0 0
  (1) pair eam/fs, perpetual
      attributes: half, newton on
      pair build: half/bin/atomonly/newton
      stencil: half/bin/3d
      bin: standard
Setting up Verlet run ...
  Unit style    : metal
  Current step  : 0
  Time step     : 0.001
Per MPI rank memory allocation (min/avg/max) = 4.462 | 4.462 | 4.462 Mbytes
   Step          Temp          E_pair         E_mol          TotEng         Press          Volume    
         0   783.72        -13642.623      0             -13237.509      6125.3482      66233.489    
     10000   770.37083     -13181.711      0             -12783.498     -1014.0951      69965.189    
Loop time of 97.0521 on 1 procs for 10000 steps with 4000 atoms

Performance: 8.902 ns/day, 2.696 hours/ns, 103.037 timesteps/s, 412.150 katom-step/s
99.5% CPU use with 1 MPI tasks x 1 OpenMP threads

MPI task timing breakdown:
Section |  min time  |  avg time  |  max time  |%varavg| %total
---------------------------------------------------------------
Pair    | 93.922     | 93.922     | 93.922     |   0.0 | 96.78
Neigh   | 1.5945     | 1.5945     | 1.5945     |   0.0 |  1.64
Comm    | 0.30714    | 0.30714    | 0.30714    |   0.0 |  0.32
Output  | 5.4822e-05 | 5.4822e-05 | 5.4822e-05 |   0.0 |  0.00
Modify  | 1.0948     | 1.0948     | 1.0948     |   0.0 |  1.13
Other   |            | 0.1332     |            |       |  0.14

Nlocal:           4000 ave        4000 max        4000 min
Histogram: 1 0 0 0 0 0 0 0 0 0
Nghost:           7975 ave        7975 max        7975 min
Histogram: 1 0 0 0 0 0 0 0 0 0
Neighs:         290224 ave      290224 max      290224 min
Histogram: 1 0 0 0 0 0 0 0 0 0

Total # of neighbors = 290224
Ave neighs/atom = 72.556
Neighbor list builds = 194
Dangerous builds = 0
Setting up Verlet run ...
  Unit style    : metal
  Current step  : 10000
  Time step     : 0.001
Per MPI rank memory allocation (min/avg/max) = 4.843 | 4.843 | 4.843 Mbytes
   Step          Temp          E_pair         E_mol          TotEng         Press          Volume    
     10000   770.37083     -13181.711      0             -12783.498     -1014.0951      69965.189    
    100000   786.20424     -13173.596      0             -12767.198     -439.13898      69973.777    
Loop time of 869.397 on 1 procs for 90000 steps with 4000 atoms

Performance: 8.944 ns/day, 2.683 hours/ns, 103.520 timesteps/s, 414.080 katom-step/s
99.5% CPU use with 1 MPI tasks x 1 OpenMP threads

MPI task timing breakdown:
Section |  min time  |  avg time  |  max time  |%varavg| %total
---------------------------------------------------------------
Pair    | 841.08     | 841.08     | 841.08     |   0.0 | 96.74
Neigh   | 14.355     | 14.355     | 14.355     |   0.0 |  1.65
Comm    | 2.7633     | 2.7633     | 2.7633     |   0.0 |  0.32
Output  | 0.14336    | 0.14336    | 0.14336    |   0.0 |  0.02
Modify  | 9.9223     | 9.9223     | 9.9223     |   0.0 |  1.14
Other   |            | 1.13       |            |       |  0.13

Nlocal:           4000 ave        4000 max        4000 min
Histogram: 1 0 0 0 0 0 0 0 0 0
Nghost:           7968 ave        7968 max        7968 min
Histogram: 1 0 0 0 0 0 0 0 0 0
Neighs:         290157 ave      290157 max      290157 min
Histogram: 1 0 0 0 0 0 0 0 0 0

Total # of neighbors = 290157
Ave neighs/atom = 72.53925
Neighbor list builds = 1745
Dangerous builds = 0
Setting up cg style minimization ...
  Unit style    : metal
  Current step  : 100000
Per MPI rank memory allocation (min/avg/max) = 5.968 | 5.968 | 5.968 Mbytes
   Step          Temp          E_pair         E_mol          TotEng         Press          Volume    
    100000   786.20424     -13173.596      0             -12767.198     -439.13898      69973.777    
    100075   786.20424     -13596.193      0             -13189.795     -31687.2        69973.777    
Loop time of 1.13241 on 1 procs for 75 steps with 4000 atoms

99.6% CPU use with 1 MPI tasks x 1 OpenMP threads

Minimization stats:
  Stopping criterion = linesearch alpha is zero
  Energy initial, next-to-last, final = 
     -13173.5960368396  -13596.1927065853  -13596.1927065853
  Force two-norm initial, final = 54.725816 2.9259694e-05
  Force max component initial, final = 2.327093 1.122422e-06
  Final line search alpha, max atom move = 0.050877394 5.7105906e-08
  Iterations, force evaluations = 75 143

MPI task timing breakdown:
Section |  min time  |  avg time  |  max time  |%varavg| %total
---------------------------------------------------------------
Pair    | 1.1208     | 1.1208     | 1.1208     |   0.0 | 98.98
Neigh   | 0          | 0          | 0          |   0.0 |  0.00
Comm    | 0.0040388  | 0.0040388  | 0.0040388  |   0.0 |  0.36
Output  | 0          | 0          | 0          |   0.0 |  0.00
Modify  | 0          | 0          | 0          |   0.0 |  0.00
Other   |            | 0.00756    |            |       |  0.67

Nlocal:           4000 ave        4000 max        4000 min
Histogram: 1 0 0 0 0 0 0 0 0 0
Nghost:           7963 ave        7963 max        7963 min
Histogram: 1 0 0 0 0 0 0 0 0 0
Neighs:         290279 ave      290279 max      290279 min
Histogram: 1 0 0 0 0 0 0 0 0 0

Total # of neighbors = 290279
Ave neighs/atom = 72.56975
Neighbor list builds = 0
Dangerous builds = 0
Total wall time: 0:16:07
