LAMMPS (29 Aug 2024)
OMP_NUM_THREADS environment is not set. Defaulting to 1 thread. (src/comm.cpp:98)
  using 1 OpenMP thread(s) per MPI task

#---------------------------- Atomic setup ------------------------------------#
units            metal
timestep         0.001
boundary         p p p
lattice          fcc 4.046
Lattice spacing in x,y,z = 4.046 4.046 4.046
region           sim_box block 0 10 0 10 0 10
create_box       1 sim_box
Created orthogonal box = (0 0 0) to (40.46 40.46 40.46)
  1 by 1 by 1 MPI processor grid
create_atoms     1 box
Created 4000 atoms
  using lattice units in orthogonal box = (0 0 0) to (40.46 40.46 40.46)
  create_atoms CPU = 0.001 seconds

pair_style       eam/fs                                             # interatomic potential (Lennard-Jones, EAM, etc.)
pair_coeff       * * ${potentials_dir}/al_eam.fs Al # interatomic potential parameters (ex. eam.alloy Cu_u3.eam)
pair_coeff       * * md/potentials/al_eam.fs Al 
pair_modify      tail yes
neigh_modify     delay 0                                                       # neighbor list update frequency (0 = every timestep)
mass             1 26.981539                                                 # atomic mass
variable         rnd equal round(random(0,999999,42))

#----------------------------- Equilibriation ---------------------------------#
velocity         all create 559.8 ${rnd} dist gaussian              # initial velocities
velocity         all create 559.8 420940 dist gaussian              
fix              f2 all nph iso 0 0 1.0        # barostat
variable         rnd equal round(random(0,999999,0))
fix              f3 all temp/csvr 559.8 559.8 0.1 ${rnd} # thermostat
fix              f3 all temp/csvr 559.8 559.8 0.1 53464 
run              10000                                           # equilibriation run
Neighbor list info ...
  update: every = 1 steps, delay = 0 steps, check = yes
  max neighbors/atom: 2000, page size: 100000
  master list distance cutoff = 8.5
  ghost atom cutoff = 8.5
  binsize = 4.25, bins = 10 10 10
  1 neighbor lists, perpetual/occasional/extra = 1 0 0
  (1) pair eam/fs, perpetual
      attributes: half, newton on
      pair build: half/bin/atomonly/newton
      stencil: half/bin/3d
      bin: standard
Per MPI rank memory allocation (min/avg/max) = 4.462 | 4.462 | 4.462 Mbytes
   Step          Temp          E_pair         E_mol          TotEng         Press          Volume    
         0   559.8         -13642.623      0             -13353.256      4258.7519      66233.489    
     10000   547.79983     -13335.334      0             -13052.17      -540.42279      68794.955    
Loop time of 97.3685 on 1 procs for 10000 steps with 4000 atoms

Performance: 8.874 ns/day, 2.705 hours/ns, 102.703 timesteps/s, 410.810 katom-step/s
99.6% CPU use with 1 MPI tasks x 1 OpenMP threads

MPI task timing breakdown:
Section |  min time  |  avg time  |  max time  |%varavg| %total
---------------------------------------------------------------
Pair    | 94.648     | 94.648     | 94.648     |   0.0 | 97.21
Neigh   | 1.1749     | 1.1749     | 1.1749     |   0.0 |  1.21
Comm    | 0.30912    | 0.30912    | 0.30912    |   0.0 |  0.32
Output  | 5.6746e-05 | 5.6746e-05 | 5.6746e-05 |   0.0 |  0.00
Modify  | 1.106      | 1.106      | 1.106      |   0.0 |  1.14
Other   |            | 0.1303     |            |       |  0.13

Nlocal:           4000 ave        4000 max        4000 min
Histogram: 1 0 0 0 0 0 0 0 0 0
Nghost:           8147 ave        8147 max        8147 min
Histogram: 1 0 0 0 0 0 0 0 0 0
Neighs:         290831 ave      290831 max      290831 min
Histogram: 1 0 0 0 0 0 0 0 0 0

Total # of neighbors = 290831
Ave neighs/atom = 72.70775
Neighbor list builds = 144
Dangerous builds = 0

#----------------------------- Run simulation ---------------------------------#
dump             d1 all custom 10000 md/data/al_fcc/dump_0.6.gz id type x y z # snapshots
run              90000
Per MPI rank memory allocation (min/avg/max) = 4.843 | 4.843 | 4.843 Mbytes
   Step          Temp          E_pair         E_mol          TotEng         Press          Volume    
     10000   547.79983     -13335.334      0             -13052.17      -540.42279      68794.955    
    100000   551.12413     -13326.953      0             -13042.07       586.0383       68757.502    
Loop time of 878.027 on 1 procs for 90000 steps with 4000 atoms

Performance: 8.856 ns/day, 2.710 hours/ns, 102.503 timesteps/s, 410.010 katom-step/s
99.6% CPU use with 1 MPI tasks x 1 OpenMP threads

MPI task timing breakdown:
Section |  min time  |  avg time  |  max time  |%varavg| %total
---------------------------------------------------------------
Pair    | 853.16     | 853.16     | 853.16     |   0.0 | 97.17
Neigh   | 10.702     | 10.702     | 10.702     |   0.0 |  1.22
Comm    | 2.7914     | 2.7914     | 2.7914     |   0.0 |  0.32
Output  | 0.14256    | 0.14256    | 0.14256    |   0.0 |  0.02
Modify  | 9.9788     | 9.9788     | 9.9788     |   0.0 |  1.14
Other   |            | 1.248      |            |       |  0.14

Nlocal:           4000 ave        4000 max        4000 min
Histogram: 1 0 0 0 0 0 0 0 0 0
Nghost:           8164 ave        8164 max        8164 min
Histogram: 1 0 0 0 0 0 0 0 0 0
Neighs:         291363 ave      291363 max      291363 min
Histogram: 1 0 0 0 0 0 0 0 0 0

Total # of neighbors = 291363
Ave neighs/atom = 72.84075
Neighbor list builds = 1307
Dangerous builds = 0
undump           d1
min_modify       line forcezero
minimize         0 0 100000 100000                                                                               # minimize energy
Per MPI rank memory allocation (min/avg/max) = 5.968 | 5.968 | 5.968 Mbytes
   Step          Temp          E_pair         E_mol          TotEng         Press          Volume    
    100000   551.12413     -13326.953      0             -13042.07       586.0383       68757.502    
    100073   551.12413     -13620.661      0             -13335.779     -22096.731      68757.502    
Loop time of 1.43806 on 1 procs for 73 steps with 4000 atoms

99.6% CPU use with 1 MPI tasks x 1 OpenMP threads

Minimization stats:
  Stopping criterion = linesearch alpha is zero
  Energy initial, next-to-last, final = 
     -13326.9526533873  -13620.6611237486  -13620.6611237486
  Force two-norm initial, final = 48.156866 1.5680784e-05
  Force max component initial, final = 1.8234533 5.3791984e-07
  Final line search alpha, max atom move = 4.4578679e-07 2.3979756e-13
  Iterations, force evaluations = 73 150

MPI task timing breakdown:
Section |  min time  |  avg time  |  max time  |%varavg| %total
---------------------------------------------------------------
Pair    | 1.426      | 1.426      | 1.426      |   0.0 | 99.16
Neigh   | 0          | 0          | 0          |   0.0 |  0.00
Comm    | 0.0043304  | 0.0043304  | 0.0043304  |   0.0 |  0.30
Output  | 0          | 0          | 0          |   0.0 |  0.00
Modify  | 0          | 0          | 0          |   0.0 |  0.00
Other   |            | 0.007743   |            |       |  0.54

Nlocal:           4000 ave        4000 max        4000 min
Histogram: 1 0 0 0 0 0 0 0 0 0
Nghost:           8161 ave        8161 max        8161 min
Histogram: 1 0 0 0 0 0 0 0 0 0
Neighs:         291357 ave      291357 max      291357 min
Histogram: 1 0 0 0 0 0 0 0 0 0

Total # of neighbors = 291357
Ave neighs/atom = 72.83925
Neighbor list builds = 0
Dangerous builds = 0
write_dump       all custom md/data/al_fcc/dump_0.6_relaxed.gz id type x y z
#------------------------------------------------------------------------------#
Total wall time: 0:16:16
