LAMMPS (29 Aug 2024)
OMP_NUM_THREADS environment is not set. Defaulting to 1 thread. (src/comm.cpp:98)
  using 1 OpenMP thread(s) per MPI task

#---------------------------- Atomic setup ------------------------------------#
units            metal
timestep         0.001
boundary         p p p
lattice          fcc 4.046
Lattice spacing in x,y,z = 4.046 4.046 4.046
region           sim_box block 0 10 0 10 0 10
create_box       1 sim_box
Created orthogonal box = (0 0 0) to (40.46 40.46 40.46)
  1 by 1 by 1 MPI processor grid
create_atoms     1 box
Created 4000 atoms
  using lattice units in orthogonal box = (0 0 0) to (40.46 40.46 40.46)
  create_atoms CPU = 0.001 seconds

pair_style       eam/fs                                             # interatomic potential (Lennard-Jones, EAM, etc.)
pair_coeff       * * ${potentials_dir}/al_eam.fs Al # interatomic potential parameters (ex. eam.alloy Cu_u3.eam)
pair_coeff       * * md/potentials/al_eam.fs Al 
pair_modify      tail yes
neigh_modify     delay 0                                                       # neighbor list update frequency (0 = every timestep)
mass             1 26.981539                                                 # atomic mass
variable         rnd equal round(random(0,999999,42))

#----------------------------- Equilibriation ---------------------------------#
velocity         all create 895.68 ${rnd} dist gaussian              # initial velocities
velocity         all create 895.68 420940 dist gaussian              
fix              f2 all nph iso 0 0 1.0        # barostat
variable         rnd equal round(random(0,999999,0))
fix              f3 all temp/csvr 895.68 895.68 0.1 ${rnd} # thermostat
fix              f3 all temp/csvr 895.68 895.68 0.1 53464 
run              10000                                           # equilibriation run
Neighbor list info ...
  update: every = 1 steps, delay = 0 steps, check = yes
  max neighbors/atom: 2000, page size: 100000
  master list distance cutoff = 8.5
  ghost atom cutoff = 8.5
  binsize = 4.25, bins = 10 10 10
  1 neighbor lists, perpetual/occasional/extra = 1 0 0
  (1) pair eam/fs, perpetual
      attributes: half, newton on
      pair build: half/bin/atomonly/newton
      stencil: half/bin/3d
      bin: standard
Per MPI rank memory allocation (min/avg/max) = 4.462 | 4.462 | 4.462 Mbytes
   Step          Temp          E_pair         E_mol          TotEng         Press          Volume    
         0   895.68        -13642.623      0             -13179.636      7058.6463      66233.489    
     10000   870.37021     -13087.577      0             -12637.673     -1030.6691      70688.271    
Loop time of 96.6921 on 1 procs for 10000 steps with 4000 atoms

Performance: 8.936 ns/day, 2.686 hours/ns, 103.421 timesteps/s, 413.684 katom-step/s
99.5% CPU use with 1 MPI tasks x 1 OpenMP threads

MPI task timing breakdown:
Section |  min time  |  avg time  |  max time  |%varavg| %total
---------------------------------------------------------------
Pair    | 93.427     | 93.427     | 93.427     |   0.0 | 96.62
Neigh   | 1.7189     | 1.7189     | 1.7189     |   0.0 |  1.78
Comm    | 0.30535    | 0.30535    | 0.30535    |   0.0 |  0.32
Output  | 0.00020443 | 0.00020443 | 0.00020443 |   0.0 |  0.00
Modify  | 1.1084     | 1.1084     | 1.1084     |   0.0 |  1.15
Other   |            | 0.1327     |            |       |  0.14

Nlocal:           4000 ave        4000 max        4000 min
Histogram: 1 0 0 0 0 0 0 0 0 0
Nghost:           7829 ave        7829 max        7829 min
Histogram: 1 0 0 0 0 0 0 0 0 0
Neighs:         289204 ave      289204 max      289204 min
Histogram: 1 0 0 0 0 0 0 0 0 0

Total # of neighbors = 289204
Ave neighs/atom = 72.301
Neighbor list builds = 209
Dangerous builds = 0

#----------------------------- Run simulation ---------------------------------#
dump             d1 all custom 10000 md/data/al_fcc/dump_0.96.gz id type x y z # snapshots
run              90000
Per MPI rank memory allocation (min/avg/max) = 4.843 | 4.843 | 4.843 Mbytes
   Step          Temp          E_pair         E_mol          TotEng         Press          Volume    
     10000   870.37021     -13087.577      0             -12637.673     -1030.6691      70688.271    
    100000   896.396       -13079.139      0             -12615.782     -470.88479      70698.397    
Loop time of 870.322 on 1 procs for 90000 steps with 4000 atoms

Performance: 8.935 ns/day, 2.686 hours/ns, 103.410 timesteps/s, 413.640 katom-step/s
99.5% CPU use with 1 MPI tasks x 1 OpenMP threads

MPI task timing breakdown:
Section |  min time  |  avg time  |  max time  |%varavg| %total
---------------------------------------------------------------
Pair    | 840.47     | 840.47     | 840.47     |   0.0 | 96.57
Neigh   | 15.7       | 15.7       | 15.7       |   0.0 |  1.80
Comm    | 2.7522     | 2.7522     | 2.7522     |   0.0 |  0.32
Output  | 0.13976    | 0.13976    | 0.13976    |   0.0 |  0.02
Modify  | 10.045     | 10.045     | 10.045     |   0.0 |  1.15
Other   |            | 1.22       |            |       |  0.14

Nlocal:           4000 ave        4000 max        4000 min
Histogram: 1 0 0 0 0 0 0 0 0 0
Nghost:           7848 ave        7848 max        7848 min
Histogram: 1 0 0 0 0 0 0 0 0 0
Neighs:         289067 ave      289067 max      289067 min
Histogram: 1 0 0 0 0 0 0 0 0 0

Total # of neighbors = 289067
Ave neighs/atom = 72.26675
Neighbor list builds = 1904
Dangerous builds = 0
undump           d1
min_modify       line forcezero
minimize         0 0 100000 100000                                                                               # minimize energy
Per MPI rank memory allocation (min/avg/max) = 5.968 | 5.968 | 5.968 Mbytes
   Step          Temp          E_pair         E_mol          TotEng         Press          Volume    
    100000   896.396       -13079.139      0             -12615.782     -470.88479      70698.397    
    100086   896.396       -13577.535      0             -13114.178     -37595.728      70698.397    
Loop time of 1.19482 on 1 procs for 86 steps with 4000 atoms

99.6% CPU use with 1 MPI tasks x 1 OpenMP threads

Minimization stats:
  Stopping criterion = linesearch alpha is zero
  Energy initial, next-to-last, final = 
     -13079.1392149901  -13577.5348084487  -13577.5348084487
  Force two-norm initial, final = 57.054562 2.448898e-05
  Force max component initial, final = 2.1825929 9.3910957e-07
  Final line search alpha, max atom move = 0.0049905042 4.6866302e-09
  Iterations, force evaluations = 86 156

MPI task timing breakdown:
Section |  min time  |  avg time  |  max time  |%varavg| %total
---------------------------------------------------------------
Pair    | 1.1728     | 1.1728     | 1.1728     |   0.0 | 98.16
Neigh   | 0.0078137  | 0.0078137  | 0.0078137  |   0.0 |  0.65
Comm    | 0.0048901  | 0.0048901  | 0.0048901  |   0.0 |  0.41
Output  | 0          | 0          | 0          |   0.0 |  0.00
Modify  | 0          | 0          | 0          |   0.0 |  0.00
Other   |            | 0.009336   |            |       |  0.78

Nlocal:           4000 ave        4000 max        4000 min
Histogram: 1 0 0 0 0 0 0 0 0 0
Nghost:           8195 ave        8195 max        8195 min
Histogram: 1 0 0 0 0 0 0 0 0 0
Neighs:         279950 ave      279950 max      279950 min
Histogram: 1 0 0 0 0 0 0 0 0 0

Total # of neighbors = 279950
Ave neighs/atom = 69.9875
Neighbor list builds = 1
Dangerous builds = 0
write_dump       all custom md/data/al_fcc/dump_0.96_relaxed.gz id type x y z
#------------------------------------------------------------------------------#
Total wall time: 0:16:08
