LAMMPS (29 Aug 2024)
OMP_NUM_THREADS environment is not set. Defaulting to 1 thread. (src/comm.cpp:98)
  using 1 OpenMP thread(s) per MPI task
Lattice spacing in x,y,z = 4.046 4.046 4.046
Created orthogonal box = (0 0 0) to (40.46 40.46 40.46)
  1 by 1 by 1 MPI processor grid
Created 4000 atoms
  using lattice units in orthogonal box = (0 0 0) to (40.46 40.46 40.46)
  create_atoms CPU = 0.001 seconds
Neighbor list info ...
  update: every = 1 steps, delay = 0 steps, check = yes
  max neighbors/atom: 2000, page size: 100000
  master list distance cutoff = 8.5
  ghost atom cutoff = 8.5
  binsize = 4.25, bins = 10 10 10
  1 neighbor lists, perpetual/occasional/extra = 1 0 0
  (1) pair eam/fs, perpetual
      attributes: half, newton on
      pair build: half/bin/atomonly/newton
      stencil: half/bin/3d
      bin: standard
Setting up Verlet run ...
  Unit style    : metal
  Current step  : 0
  Time step     : 0.001
Per MPI rank memory allocation (min/avg/max) = 4.462 | 4.462 | 4.462 Mbytes
   Step          Temp          E_pair         E_mol          TotEng         Press          Volume    
         0   485.16        -13642.623      0             -13391.839      3636.5531      66233.489    
     10000   479.80315     -13386.426      0             -13138.41      -483.09739      68408.675    
Loop time of 96.8201 on 1 procs for 10000 steps with 4000 atoms

Performance: 8.924 ns/day, 2.689 hours/ns, 103.284 timesteps/s, 413.137 katom-step/s
99.6% CPU use with 1 MPI tasks x 1 OpenMP threads

MPI task timing breakdown:
Section |  min time  |  avg time  |  max time  |%varavg| %total
---------------------------------------------------------------
Pair    | 94.533     | 94.533     | 94.533     |   0.0 | 97.64
Neigh   | 0.73132    | 0.73132    | 0.73132    |   0.0 |  0.76
Comm    | 0.30283    | 0.30283    | 0.30283    |   0.0 |  0.31
Output  | 6.0003e-05 | 6.0003e-05 | 6.0003e-05 |   0.0 |  0.00
Modify  | 1.1155     | 1.1155     | 1.1155     |   0.0 |  1.15
Other   |            | 0.1369     |            |       |  0.14

Nlocal:           4000 ave        4000 max        4000 min
Histogram: 1 0 0 0 0 0 0 0 0 0
Nghost:           8149 ave        8149 max        8149 min
Histogram: 1 0 0 0 0 0 0 0 0 0
Neighs:         291439 ave      291439 max      291439 min
Histogram: 1 0 0 0 0 0 0 0 0 0

Total # of neighbors = 291439
Ave neighs/atom = 72.85975
Neighbor list builds = 90
Dangerous builds = 0
Setting up Verlet run ...
  Unit style    : metal
  Current step  : 10000
  Time step     : 0.001
Per MPI rank memory allocation (min/avg/max) = 4.462 | 4.462 | 4.462 Mbytes
   Step          Temp          E_pair         E_mol          TotEng         Press          Volume    
     10000   479.80315     -13386.426      0             -13138.41      -483.09739      68408.675    
    100000   479.96918     -13376.039      0             -13127.937      248.87415      68422.082    
Loop time of 875.39 on 1 procs for 90000 steps with 4000 atoms

Performance: 8.883 ns/day, 2.702 hours/ns, 102.811 timesteps/s, 411.245 katom-step/s
99.6% CPU use with 1 MPI tasks x 1 OpenMP threads

MPI task timing breakdown:
Section |  min time  |  avg time  |  max time  |%varavg| %total
---------------------------------------------------------------
Pair    | 855.6      | 855.6      | 855.6      |   0.0 | 97.74
Neigh   | 5.7566     | 5.7566     | 5.7566     |   0.0 |  0.66
Comm    | 2.6906     | 2.6906     | 2.6906     |   0.0 |  0.31
Output  | 0.14291    | 0.14291    | 0.14291    |   0.0 |  0.02
Modify  | 10.036     | 10.036     | 10.036     |   0.0 |  1.15
Other   |            | 1.161      |            |       |  0.13

Nlocal:           4000 ave        4000 max        4000 min
Histogram: 1 0 0 0 0 0 0 0 0 0
Nghost:           8167 ave        8167 max        8167 min
Histogram: 1 0 0 0 0 0 0 0 0 0
Neighs:         291200 ave      291200 max      291200 min
Histogram: 1 0 0 0 0 0 0 0 0 0

Total # of neighbors = 291200
Ave neighs/atom = 72.8
Neighbor list builds = 706
Dangerous builds = 0
Setting up cg style minimization ...
  Unit style    : metal
  Current step  : 100000
Per MPI rank memory allocation (min/avg/max) = 5.587 | 5.587 | 5.587 Mbytes
   Step          Temp          E_pair         E_mol          TotEng         Press          Volume    
    100000   479.96918     -13376.039      0             -13127.937      248.87415      68422.082    
    100068   479.96918     -13625.882      0             -13377.781     -19455.442      68422.082    
Loop time of 1.35487 on 1 procs for 68 steps with 4000 atoms

99.6% CPU use with 1 MPI tasks x 1 OpenMP threads

Minimization stats:
  Stopping criterion = linesearch alpha is zero
  Energy initial, next-to-last, final = 
     -13376.0387240908  -13625.8823890506  -13625.8823890506
  Force two-norm initial, final = 45.163252 2.8177197e-05
  Force max component initial, final = 1.5999667 1.0669752e-06
  Final line search alpha, max atom move = 0.0002154268 2.2985505e-10
  Iterations, force evaluations = 68 141

MPI task timing breakdown:
Section |  min time  |  avg time  |  max time  |%varavg| %total
---------------------------------------------------------------
Pair    | 1.3431     | 1.3431     | 1.3431     |   0.0 | 99.13
Neigh   | 0          | 0          | 0          |   0.0 |  0.00
Comm    | 0.0041502  | 0.0041502  | 0.0041502  |   0.0 |  0.31
Output  | 0          | 0          | 0          |   0.0 |  0.00
Modify  | 0          | 0          | 0          |   0.0 |  0.00
Other   |            | 0.007643   |            |       |  0.56

Nlocal:           4000 ave        4000 max        4000 min
Histogram: 1 0 0 0 0 0 0 0 0 0
Nghost:           8184 ave        8184 max        8184 min
Histogram: 1 0 0 0 0 0 0 0 0 0
Neighs:         291500 ave      291500 max      291500 min
Histogram: 1 0 0 0 0 0 0 0 0 0

Total # of neighbors = 291500
Ave neighs/atom = 72.875
Neighbor list builds = 0
Dangerous builds = 0
Total wall time: 0:16:13
