LAMMPS (29 Aug 2024)
OMP_NUM_THREADS environment is not set. Defaulting to 1 thread. (src/comm.cpp:98)
  using 1 OpenMP thread(s) per MPI task
Lattice spacing in x,y,z = 4.046 4.046 4.046
Created orthogonal box = (0 0 0) to (40.46 40.46 40.46)
  1 by 1 by 1 MPI processor grid
Created 4000 atoms
  using lattice units in orthogonal box = (0 0 0) to (40.46 40.46 40.46)
  create_atoms CPU = 0.001 seconds
Neighbor list info ...
  update: every = 1 steps, delay = 0 steps, check = yes
  max neighbors/atom: 2000, page size: 100000
  master list distance cutoff = 8.5
  ghost atom cutoff = 8.5
  binsize = 4.25, bins = 10 10 10
  1 neighbor lists, perpetual/occasional/extra = 1 0 0
  (1) pair eam/fs, perpetual
      attributes: half, newton on
      pair build: half/bin/atomonly/newton
      stencil: half/bin/3d
      bin: standard
Setting up Verlet run ...
  Unit style    : metal
  Current step  : 0
  Time step     : 0.001
Per MPI rank memory allocation (min/avg/max) = 4.462 | 4.462 | 4.462 Mbytes
   Step          Temp          E_pair         E_mol          TotEng         Press          Volume    
         0   1455.48       -13642.623      0             -12890.269      11725.137      66233.489    
     10000   1407.5091     -12206.237      0             -11478.679      2221.6213      79091.587    
Loop time of 89.329 on 1 procs for 10000 steps with 4000 atoms

Performance: 9.672 ns/day, 2.481 hours/ns, 111.946 timesteps/s, 447.783 katom-step/s
99.5% CPU use with 1 MPI tasks x 1 OpenMP threads

MPI task timing breakdown:
Section |  min time  |  avg time  |  max time  |%varavg| %total
---------------------------------------------------------------
Pair    | 85.685     | 85.685     | 85.685     |   0.0 | 95.92
Neigh   | 2.1046     | 2.1046     | 2.1046     |   0.0 |  2.36
Comm    | 0.29733    | 0.29733    | 0.29733    |   0.0 |  0.33
Output  | 6.2828e-05 | 6.2828e-05 | 6.2828e-05 |   0.0 |  0.00
Modify  | 1.1064     | 1.1064     | 1.1064     |   0.0 |  1.24
Other   |            | 0.1358     |            |       |  0.15

Nlocal:           4000 ave        4000 max        4000 min
Histogram: 1 0 0 0 0 0 0 0 0 0
Nghost:           6868 ave        6868 max        6868 min
Histogram: 1 0 0 0 0 0 0 0 0 0
Neighs:         259264 ave      259264 max      259264 min
Histogram: 1 0 0 0 0 0 0 0 0 0

Total # of neighbors = 259264
Ave neighs/atom = 64.816
Neighbor list builds = 285
Dangerous builds = 0
Setting up Verlet run ...
  Unit style    : metal
  Current step  : 10000
  Time step     : 0.001
Per MPI rank memory allocation (min/avg/max) = 4.846 | 4.846 | 4.846 Mbytes
   Step          Temp          E_pair         E_mol          TotEng         Press          Volume    
     10000   1407.5091     -12206.237      0             -11478.679      2221.6213      79091.587    
    100000   1466.6373     -12202.985      0             -11444.863      1446.1747      79193.216    
Loop time of 798.21 on 1 procs for 90000 steps with 4000 atoms

Performance: 9.742 ns/day, 2.464 hours/ns, 112.752 timesteps/s, 451.009 katom-step/s
99.5% CPU use with 1 MPI tasks x 1 OpenMP threads

MPI task timing breakdown:
Section |  min time  |  avg time  |  max time  |%varavg| %total
---------------------------------------------------------------
Pair    | 765.73     | 765.73     | 765.73     |   0.0 | 95.93
Neigh   | 18.728     | 18.728     | 18.728     |   0.0 |  2.35
Comm    | 2.5616     | 2.5616     | 2.5616     |   0.0 |  0.32
Output  | 0.1503     | 0.1503     | 0.1503     |   0.0 |  0.02
Modify  | 9.8608     | 9.8608     | 9.8608     |   0.0 |  1.24
Other   |            | 1.174      |            |       |  0.15

Nlocal:           4000 ave        4000 max        4000 min
Histogram: 1 0 0 0 0 0 0 0 0 0
Nghost:           6845 ave        6845 max        6845 min
Histogram: 1 0 0 0 0 0 0 0 0 0
Neighs:         258889 ave      258889 max      258889 min
Histogram: 1 0 0 0 0 0 0 0 0 0

Total # of neighbors = 258889
Ave neighs/atom = 64.72225
Neighbor list builds = 2566
Dangerous builds = 0
Setting up cg style minimization ...
  Unit style    : metal
  Current step  : 100000
Per MPI rank memory allocation (min/avg/max) = 5.971 | 5.971 | 5.971 Mbytes
   Step          Temp          E_pair         E_mol          TotEng         Press          Volume    
    100000   1466.6373     -12202.985      0             -11444.863      1446.1747      79193.216    
    103334   1466.6373     -13171.957      0             -12413.835     -8552.6596      79193.216    
Loop time of 51.6597 on 1 procs for 3334 steps with 4000 atoms

99.5% CPU use with 1 MPI tasks x 1 OpenMP threads

Minimization stats:
  Stopping criterion = linesearch alpha is zero
  Energy initial, next-to-last, final = 
     -12202.9846439935   -13171.956685729   -13171.956685729
  Force two-norm initial, final = 68.152405 5.2662987e-05
  Force max component initial, final = 3.3811227 9.5672055e-06
  Final line search alpha, max atom move = 0.00035490942 3.3954913e-09
  Iterations, force evaluations = 3334 5570

MPI task timing breakdown:
Section |  min time  |  avg time  |  max time  |%varavg| %total
---------------------------------------------------------------
Pair    | 50.593     | 50.593     | 50.593     |   0.0 | 97.93
Neigh   | 0.57962    | 0.57962    | 0.57962    |   0.0 |  1.12
Comm    | 0.15137    | 0.15137    | 0.15137    |   0.0 |  0.29
Output  | 0          | 0          | 0          |   0.0 |  0.00
Modify  | 0          | 0          | 0          |   0.0 |  0.00
Other   |            | 0.3362     |            |       |  0.65

Nlocal:           4000 ave        4000 max        4000 min
Histogram: 1 0 0 0 0 0 0 0 0 0
Nghost:           6635 ave        6635 max        6635 min
Histogram: 1 0 0 0 0 0 0 0 0 0
Neighs:         266384 ave      266384 max      266384 min
Histogram: 1 0 0 0 0 0 0 0 0 0

Total # of neighbors = 266384
Ave neighs/atom = 66.596
Neighbor list builds = 82
Dangerous builds = 0
Total wall time: 0:15:39
