LAMMPS (29 Aug 2024)
OMP_NUM_THREADS environment is not set. Defaulting to 1 thread. (src/comm.cpp:98)
  using 1 OpenMP thread(s) per MPI task
Lattice spacing in x,y,z = 4.046 4.046 4.046
Created orthogonal box = (0 0 0) to (40.46 40.46 40.46)
  1 by 1 by 1 MPI processor grid
Created 4000 atoms
  using lattice units in orthogonal box = (0 0 0) to (40.46 40.46 40.46)
  create_atoms CPU = 0.000 seconds
Neighbor list info ...
  update: every = 1 steps, delay = 0 steps, check = yes
  max neighbors/atom: 2000, page size: 100000
  master list distance cutoff = 8.5
  ghost atom cutoff = 8.5
  binsize = 4.25, bins = 10 10 10
  1 neighbor lists, perpetual/occasional/extra = 1 0 0
  (1) pair eam/fs, perpetual
      attributes: half, newton on
      pair build: half/bin/atomonly/newton
      stencil: half/bin/3d
      bin: standard
Setting up Verlet run ...
  Unit style    : metal
  Current step  : 0
  Time step     : 0.001
Per MPI rank memory allocation (min/avg/max) = 4.462 | 4.462 | 4.462 Mbytes
   Step          Temp          E_pair         E_mol          TotEng         Press          Volume    
         0   858.36        -13642.623      0             -13198.927      6747.5469      66233.489    
     10000   842.31567     -13125.006      0             -12689.603     -366.22767      70336.599    
Loop time of 95.6338 on 1 procs for 10000 steps with 4000 atoms

Performance: 9.034 ns/day, 2.656 hours/ns, 104.566 timesteps/s, 418.262 katom-step/s
99.5% CPU use with 1 MPI tasks x 1 OpenMP threads

MPI task timing breakdown:
Section |  min time  |  avg time  |  max time  |%varavg| %total
---------------------------------------------------------------
Pair    | 92.421     | 92.421     | 92.421     |   0.0 | 96.64
Neigh   | 1.6753     | 1.6753     | 1.6753     |   0.0 |  1.75
Comm    | 0.30558    | 0.30558    | 0.30558    |   0.0 |  0.32
Output  | 0.00019284 | 0.00019284 | 0.00019284 |   0.0 |  0.00
Modify  | 1.1014     | 1.1014     | 1.1014     |   0.0 |  1.15
Other   |            | 0.1307     |            |       |  0.14

Nlocal:           4000 ave        4000 max        4000 min
Histogram: 1 0 0 0 0 0 0 0 0 0
Nghost:           7915 ave        7915 max        7915 min
Histogram: 1 0 0 0 0 0 0 0 0 0
Neighs:         289779 ave      289779 max      289779 min
Histogram: 1 0 0 0 0 0 0 0 0 0

Total # of neighbors = 289779
Ave neighs/atom = 72.44475
Neighbor list builds = 204
Dangerous builds = 0
Setting up Verlet run ...
  Unit style    : metal
  Current step  : 10000
  Time step     : 0.001
Per MPI rank memory allocation (min/avg/max) = 4.843 | 4.843 | 4.843 Mbytes
   Step          Temp          E_pair         E_mol          TotEng         Press          Volume    
     10000   842.31567     -13125.006      0             -12689.603     -366.22767      70336.599    
    100000   846.22748     -13103.438      0             -12666.013     -100.56804      70484.756    
Loop time of 869.325 on 1 procs for 90000 steps with 4000 atoms

Performance: 8.945 ns/day, 2.683 hours/ns, 103.529 timesteps/s, 414.114 katom-step/s
99.5% CPU use with 1 MPI tasks x 1 OpenMP threads

MPI task timing breakdown:
Section |  min time  |  avg time  |  max time  |%varavg| %total
---------------------------------------------------------------
Pair    | 840.02     | 840.02     | 840.02     |   0.0 | 96.63
Neigh   | 15.246     | 15.246     | 15.246     |   0.0 |  1.75
Comm    | 2.7292     | 2.7292     | 2.7292     |   0.0 |  0.31
Output  | 0.14056    | 0.14056    | 0.14056    |   0.0 |  0.02
Modify  | 10.01      | 10.01      | 10.01      |   0.0 |  1.15
Other   |            | 1.181      |            |       |  0.14

Nlocal:           4000 ave        4000 max        4000 min
Histogram: 1 0 0 0 0 0 0 0 0 0
Nghost:           7902 ave        7902 max        7902 min
Histogram: 1 0 0 0 0 0 0 0 0 0
Neighs:         289461 ave      289461 max      289461 min
Histogram: 1 0 0 0 0 0 0 0 0 0

Total # of neighbors = 289461
Ave neighs/atom = 72.36525
Neighbor list builds = 1852
Dangerous builds = 0
Setting up cg style minimization ...
  Unit style    : metal
  Current step  : 100000
Per MPI rank memory allocation (min/avg/max) = 5.968 | 5.968 | 5.968 Mbytes
   Step          Temp          E_pair         E_mol          TotEng         Press          Volume    
    100000   846.22748     -13103.438      0             -12666.013     -100.56804      70484.756    
    100076   846.22748     -13583.351      0             -13145.926     -35994.485      70484.756    
Loop time of 1.16123 on 1 procs for 76 steps with 4000 atoms

99.6% CPU use with 1 MPI tasks x 1 OpenMP threads

Minimization stats:
  Stopping criterion = linesearch alpha is zero
  Energy initial, next-to-last, final = 
     -13103.4379454189  -13583.3509951322  -13583.3509951322
  Force two-norm initial, final = 56.496807 4.4776071e-05
  Force max component initial, final = 2.7449611 1.6206018e-06
  Final line search alpha, max atom move = 1.2252306e-06 1.9856108e-12
  Iterations, force evaluations = 76 152

MPI task timing breakdown:
Section |  min time  |  avg time  |  max time  |%varavg| %total
---------------------------------------------------------------
Pair    | 1.141      | 1.141      | 1.141      |   0.0 | 98.26
Neigh   | 0.0076613  | 0.0076613  | 0.0076613  |   0.0 |  0.66
Comm    | 0.0045399  | 0.0045399  | 0.0045399  |   0.0 |  0.39
Output  | 0          | 0          | 0          |   0.0 |  0.00
Modify  | 0          | 0          | 0          |   0.0 |  0.00
Other   |            | 0.008034   |            |       |  0.69

Nlocal:           4000 ave        4000 max        4000 min
Histogram: 1 0 0 0 0 0 0 0 0 0
Nghost:           8195 ave        8195 max        8195 min
Histogram: 1 0 0 0 0 0 0 0 0 0
Neighs:         280000 ave      280000 max      280000 min
Histogram: 1 0 0 0 0 0 0 0 0 0

Total # of neighbors = 280000
Ave neighs/atom = 70
Neighbor list builds = 1
Dangerous builds = 0
Total wall time: 0:16:06
