LAMMPS (29 Aug 2024)
OMP_NUM_THREADS environment is not set. Defaulting to 1 thread. (src/comm.cpp:98)
  using 1 OpenMP thread(s) per MPI task

#---------------------------- Atomic setup ------------------------------------#
units            metal
timestep         0.001
boundary         p p p
lattice          fcc 4.046
Lattice spacing in x,y,z = 4.046 4.046 4.046
region           sim_box block 0 10 0 10 0 10
create_box       1 sim_box
Created orthogonal box = (0 0 0) to (40.46 40.46 40.46)
  1 by 1 by 1 MPI processor grid
create_atoms     1 box
Created 4000 atoms
  using lattice units in orthogonal box = (0 0 0) to (40.46 40.46 40.46)
  create_atoms CPU = 0.001 seconds

pair_style       eam/fs                                             # interatomic potential (Lennard-Jones, EAM, etc.)
pair_coeff       * * ${potentials_dir}/al_eam.fs Al # interatomic potential parameters (ex. eam.alloy Cu_u3.eam)
pair_coeff       * * md/potentials/al_eam.fs Al 
pair_modify      tail yes
neigh_modify     delay 0                                                       # neighbor list update frequency (0 = every timestep)
mass             1 26.981539                                                 # atomic mass
variable         rnd equal round(random(0,999999,42))

#----------------------------- Equilibriation ---------------------------------#
velocity         all create 261.24 ${rnd} dist gaussian              # initial velocities
velocity         all create 261.24 420940 dist gaussian              
fix              f2 all nph iso 0 0 1.0        # barostat
variable         rnd equal round(random(0,999999,0))
fix              f3 all temp/csvr 261.24 261.24 0.1 ${rnd} # thermostat
fix              f3 all temp/csvr 261.24 261.24 0.1 53464 
run              10000                                           # equilibriation run
Neighbor list info ...
  update: every = 1 steps, delay = 0 steps, check = yes
  max neighbors/atom: 2000, page size: 100000
  master list distance cutoff = 8.5
  ghost atom cutoff = 8.5
  binsize = 4.25, bins = 10 10 10
  1 neighbor lists, perpetual/occasional/extra = 1 0 0
  (1) pair eam/fs, perpetual
      attributes: half, newton on
      pair build: half/bin/atomonly/newton
      stencil: half/bin/3d
      bin: standard
Per MPI rank memory allocation (min/avg/max) = 4.462 | 4.462 | 4.462 Mbytes
   Step          Temp          E_pair         E_mol          TotEng         Press          Volume    
         0   261.24        -13642.623      0             -13507.585      1769.9569      66233.489    
     10000   257.19991     -13511.094      0             -13378.145      33.575892      67408.994    
Loop time of 90.9997 on 1 procs for 10000 steps with 4000 atoms

Performance: 9.495 ns/day, 2.528 hours/ns, 109.891 timesteps/s, 439.562 katom-step/s
99.5% CPU use with 1 MPI tasks x 1 OpenMP threads

MPI task timing breakdown:
Section |  min time  |  avg time  |  max time  |%varavg| %total
---------------------------------------------------------------
Pair    | 89.509     | 89.509     | 89.509     |   0.0 | 98.36
Neigh   | 0          | 0          | 0          |   0.0 |  0.00
Comm    | 0.28551    | 0.28551    | 0.28551    |   0.0 |  0.31
Output  | 0.00016455 | 0.00016455 | 0.00016455 |   0.0 |  0.00
Modify  | 1.0894     | 1.0894     | 1.0894     |   0.0 |  1.20
Other   |            | 0.1152     |            |       |  0.13

Nlocal:           4000 ave        4000 max        4000 min
Histogram: 1 0 0 0 0 0 0 0 0 0
Nghost:           8195 ave        8195 max        8195 min
Histogram: 1 0 0 0 0 0 0 0 0 0
Neighs:         280000 ave      280000 max      280000 min
Histogram: 1 0 0 0 0 0 0 0 0 0

Total # of neighbors = 280000
Ave neighs/atom = 70
Neighbor list builds = 0
Dangerous builds = 0

#----------------------------- Run simulation ---------------------------------#
dump             d1 all custom 10000 md/data/al_fcc/dump_0.28.gz id type x y z # snapshots
run              90000
Per MPI rank memory allocation (min/avg/max) = 4.462 | 4.462 | 4.462 Mbytes
   Step          Temp          E_pair         E_mol          TotEng         Press          Volume    
     10000   257.19991     -13511.094      0             -13378.145      33.575892      67408.994    
    100000   262.50267     -13509.967      0             -13374.277     -471.15069      67454.592    
Loop time of 841.834 on 1 procs for 90000 steps with 4000 atoms

Performance: 9.237 ns/day, 2.598 hours/ns, 106.909 timesteps/s, 427.638 katom-step/s
99.5% CPU use with 1 MPI tasks x 1 OpenMP threads

MPI task timing breakdown:
Section |  min time  |  avg time  |  max time  |%varavg| %total
---------------------------------------------------------------
Pair    | 828.19     | 828.19     | 828.19     |   0.0 | 98.38
Neigh   | 0          | 0          | 0          |   0.0 |  0.00
Comm    | 2.5574     | 2.5574     | 2.5574     |   0.0 |  0.30
Output  | 0.14581    | 0.14581    | 0.14581    |   0.0 |  0.02
Modify  | 9.8394     | 9.8394     | 9.8394     |   0.0 |  1.17
Other   |            | 1.098      |            |       |  0.13

Nlocal:           4000 ave        4000 max        4000 min
Histogram: 1 0 0 0 0 0 0 0 0 0
Nghost:           8195 ave        8195 max        8195 min
Histogram: 1 0 0 0 0 0 0 0 0 0
Neighs:         290775 ave      290775 max      290775 min
Histogram: 1 0 0 0 0 0 0 0 0 0

Total # of neighbors = 290775
Ave neighs/atom = 72.69375
Neighbor list builds = 0
Dangerous builds = 0
undump           d1
min_modify       line forcezero
minimize         0 0 100000 100000                                                                               # minimize energy
Per MPI rank memory allocation (min/avg/max) = 5.587 | 5.587 | 5.587 Mbytes
   Step          Temp          E_pair         E_mol          TotEng         Press          Volume    
    100000   262.50267     -13509.967      0             -13374.277     -471.15069      67454.592    
    100060   262.50267     -13637.114      0             -13501.423     -11597.193      67454.592    
Loop time of 1.20798 on 1 procs for 60 steps with 4000 atoms

99.6% CPU use with 1 MPI tasks x 1 OpenMP threads

Minimization stats:
  Stopping criterion = linesearch alpha is zero
  Energy initial, next-to-last, final = 
     -13509.9671069413  -13637.1135745326  -13637.1135745326
  Force two-norm initial, final = 33.357525 3.9024798e-05
  Force max component initial, final = 1.2983707 1.4311389e-06
  Final line search alpha, max atom move = 0.0038299838 5.4812388e-09
  Iterations, force evaluations = 60 129

MPI task timing breakdown:
Section |  min time  |  avg time  |  max time  |%varavg| %total
---------------------------------------------------------------
Pair    | 1.1978     | 1.1978     | 1.1978     |   0.0 | 99.16
Neigh   | 0          | 0          | 0          |   0.0 |  0.00
Comm    | 0.0037336  | 0.0037336  | 0.0037336  |   0.0 |  0.31
Output  | 0          | 0          | 0          |   0.0 |  0.00
Modify  | 0          | 0          | 0          |   0.0 |  0.00
Other   |            | 0.006444   |            |       |  0.53

Nlocal:           4000 ave        4000 max        4000 min
Histogram: 1 0 0 0 0 0 0 0 0 0
Nghost:           8195 ave        8195 max        8195 min
Histogram: 1 0 0 0 0 0 0 0 0 0
Neighs:         290296 ave      290296 max      290296 min
Histogram: 1 0 0 0 0 0 0 0 0 0

Total # of neighbors = 290296
Ave neighs/atom = 72.574
Neighbor list builds = 0
Dangerous builds = 0
write_dump       all custom md/data/al_fcc/dump_0.28_relaxed.gz id type x y z
#------------------------------------------------------------------------------#
Total wall time: 0:15:34
