LAMMPS (29 Aug 2024)
OMP_NUM_THREADS environment is not set. Defaulting to 1 thread. (src/comm.cpp:98)
  using 1 OpenMP thread(s) per MPI task
Lattice spacing in x,y,z = 4.046 4.046 4.046
Created orthogonal box = (0 0 0) to (40.46 40.46 40.46)
  1 by 1 by 1 MPI processor grid
Created 4000 atoms
  using lattice units in orthogonal box = (0 0 0) to (40.46 40.46 40.46)
  create_atoms CPU = 0.001 seconds
Neighbor list info ...
  update: every = 1 steps, delay = 0 steps, check = yes
  max neighbors/atom: 2000, page size: 100000
  master list distance cutoff = 8.5
  ghost atom cutoff = 8.5
  binsize = 4.25, bins = 10 10 10
  1 neighbor lists, perpetual/occasional/extra = 1 0 0
  (1) pair eam/fs, perpetual
      attributes: half, newton on
      pair build: half/bin/atomonly/newton
      stencil: half/bin/3d
      bin: standard
Setting up Verlet run ...
  Unit style    : metal
  Current step  : 0
  Time step     : 0.001
Per MPI rank memory allocation (min/avg/max) = 4.462 | 4.462 | 4.462 Mbytes
   Step          Temp          E_pair         E_mol          TotEng         Press          Volume    
         0   1418.16       -13642.623      0             -12909.56       11414.038      66233.489    
     10000   1389.7014     -12251.809      0             -11533.457      655.2528       78662.411    
Loop time of 90.0416 on 1 procs for 10000 steps with 4000 atoms

Performance: 9.596 ns/day, 2.501 hours/ns, 111.060 timesteps/s, 444.239 katom-step/s
99.5% CPU use with 1 MPI tasks x 1 OpenMP threads

MPI task timing breakdown:
Section |  min time  |  avg time  |  max time  |%varavg| %total
---------------------------------------------------------------
Pair    | 86.473     | 86.473     | 86.473     |   0.0 | 96.04
Neigh   | 2.0575     | 2.0575     | 2.0575     |   0.0 |  2.29
Comm    | 0.28541    | 0.28541    | 0.28541    |   0.0 |  0.32
Output  | 5.4672e-05 | 5.4672e-05 | 5.4672e-05 |   0.0 |  0.00
Modify  | 1.0946     | 1.0946     | 1.0946     |   0.0 |  1.22
Other   |            | 0.1313     |            |       |  0.15

Nlocal:           4000 ave        4000 max        4000 min
Histogram: 1 0 0 0 0 0 0 0 0 0
Nghost:           6831 ave        6831 max        6831 min
Histogram: 1 0 0 0 0 0 0 0 0 0
Neighs:         260775 ave      260775 max      260775 min
Histogram: 1 0 0 0 0 0 0 0 0 0

Total # of neighbors = 260775
Ave neighs/atom = 65.19375
Neighbor list builds = 278
Dangerous builds = 0
Setting up Verlet run ...
  Unit style    : metal
  Current step  : 10000
  Time step     : 0.001
Per MPI rank memory allocation (min/avg/max) = 4.846 | 4.846 | 4.846 Mbytes
   Step          Temp          E_pair         E_mol          TotEng         Press          Volume    
     10000   1389.7014     -12251.809      0             -11533.457      655.2528       78662.411    
    100000   1406.0227     -12226.298      0             -11499.509     -66.011889      79162.627    
Loop time of 802.43 on 1 procs for 90000 steps with 4000 atoms

Performance: 9.691 ns/day, 2.477 hours/ns, 112.159 timesteps/s, 448.638 katom-step/s
99.5% CPU use with 1 MPI tasks x 1 OpenMP threads

MPI task timing breakdown:
Section |  min time  |  avg time  |  max time  |%varavg| %total
---------------------------------------------------------------
Pair    | 770.17     | 770.17     | 770.17     |   0.0 | 95.98
Neigh   | 18.527     | 18.527     | 18.527     |   0.0 |  2.31
Comm    | 2.5112     | 2.5112     | 2.5112     |   0.0 |  0.31
Output  | 0.15032    | 0.15032    | 0.15032    |   0.0 |  0.02
Modify  | 9.9326     | 9.9326     | 9.9326     |   0.0 |  1.24
Other   |            | 1.138      |            |       |  0.14

Nlocal:           4000 ave        4000 max        4000 min
Histogram: 1 0 0 0 0 0 0 0 0 0
Nghost:           6866 ave        6866 max        6866 min
Histogram: 1 0 0 0 0 0 0 0 0 0
Neighs:         258727 ave      258727 max      258727 min
Histogram: 1 0 0 0 0 0 0 0 0 0

Total # of neighbors = 258727
Ave neighs/atom = 64.68175
Neighbor list builds = 2535
Dangerous builds = 0
Setting up cg style minimization ...
  Unit style    : metal
  Current step  : 100000
Per MPI rank memory allocation (min/avg/max) = 5.971 | 5.971 | 5.971 Mbytes
   Step          Temp          E_pair         E_mol          TotEng         Press          Volume    
    100000   1406.0227     -12226.298      0             -11499.509     -66.011889      79162.627    
    102721   1406.0227     -13173.861      0             -12447.072     -7406.0647      79162.627    
Loop time of 41.4131 on 1 procs for 2721 steps with 4000 atoms

99.5% CPU use with 1 MPI tasks x 1 OpenMP threads

Minimization stats:
  Stopping criterion = linesearch alpha is zero
  Energy initial, next-to-last, final = 
     -12226.2976248248  -13173.8609818956  -13173.8609818956
  Force two-norm initial, final = 67.860804 5.3813146e-05
  Force max component initial, final = 3.6960517 1.0876819e-05
  Final line search alpha, max atom move = 3.4327013e-08 3.733687e-13
  Iterations, force evaluations = 2721 4476

MPI task timing breakdown:
Section |  min time  |  avg time  |  max time  |%varavg| %total
---------------------------------------------------------------
Pair    | 40.459     | 40.459     | 40.459     |   0.0 | 97.70
Neigh   | 0.56003    | 0.56003    | 0.56003    |   0.0 |  1.35
Comm    | 0.1239     | 0.1239     | 0.1239     |   0.0 |  0.30
Output  | 0          | 0          | 0          |   0.0 |  0.00
Modify  | 0          | 0          | 0          |   0.0 |  0.00
Other   |            | 0.2705     |            |       |  0.65

Nlocal:           4000 ave        4000 max        4000 min
Histogram: 1 0 0 0 0 0 0 0 0 0
Nghost:           7007 ave        7007 max        7007 min
Histogram: 1 0 0 0 0 0 0 0 0 0
Neighs:         267507 ave      267507 max      267507 min
Histogram: 1 0 0 0 0 0 0 0 0 0

Total # of neighbors = 267507
Ave neighs/atom = 66.87675
Neighbor list builds = 79
Dangerous builds = 0
Total wall time: 0:15:34
