LAMMPS (29 Aug 2024)
OMP_NUM_THREADS environment is not set. Defaulting to 1 thread. (src/comm.cpp:98)
  using 1 OpenMP thread(s) per MPI task
Lattice spacing in x,y,z = 4.046 4.046 4.046
Created orthogonal box = (0 0 0) to (40.46 40.46 40.46)
  1 by 1 by 1 MPI processor grid
Created 4000 atoms
  using lattice units in orthogonal box = (0 0 0) to (40.46 40.46 40.46)
  create_atoms CPU = 0.000 seconds
Neighbor list info ...
  update: every = 1 steps, delay = 0 steps, check = yes
  max neighbors/atom: 2000, page size: 100000
  master list distance cutoff = 8.5
  ghost atom cutoff = 8.5
  binsize = 4.25, bins = 10 10 10
  1 neighbor lists, perpetual/occasional/extra = 1 0 0
  (1) pair eam/fs, perpetual
      attributes: half, newton on
      pair build: half/bin/atomonly/newton
      stencil: half/bin/3d
      bin: standard
Setting up Verlet run ...
  Unit style    : metal
  Current step  : 0
  Time step     : 0.001
Per MPI rank memory allocation (min/avg/max) = 4.462 | 4.462 | 4.462 Mbytes
   Step          Temp          E_pair         E_mol          TotEng         Press          Volume    
         0   1380.84       -13642.623      0             -12928.851      11102.938      66233.489    
     10000   1337.8049     -12265.921      0             -11574.394      327.98612      78293.073    
Loop time of 91.2671 on 1 procs for 10000 steps with 4000 atoms

Performance: 9.467 ns/day, 2.535 hours/ns, 109.568 timesteps/s, 438.274 katom-step/s
99.5% CPU use with 1 MPI tasks x 1 OpenMP threads

MPI task timing breakdown:
Section |  min time  |  avg time  |  max time  |%varavg| %total
---------------------------------------------------------------
Pair    | 87.653     | 87.653     | 87.653     |   0.0 | 96.04
Neigh   | 2.0692     | 2.0692     | 2.0692     |   0.0 |  2.27
Comm    | 0.28687    | 0.28687    | 0.28687    |   0.0 |  0.31
Output  | 5.2769e-05 | 5.2769e-05 | 5.2769e-05 |   0.0 |  0.00
Modify  | 1.1283     | 1.1283     | 1.1283     |   0.0 |  1.24
Other   |            | 0.1299     |            |       |  0.14

Nlocal:           4000 ave        4000 max        4000 min
Histogram: 1 0 0 0 0 0 0 0 0 0
Nghost:           6891 ave        6891 max        6891 min
Histogram: 1 0 0 0 0 0 0 0 0 0
Neighs:         261613 ave      261613 max      261613 min
Histogram: 1 0 0 0 0 0 0 0 0 0

Total # of neighbors = 261613
Ave neighs/atom = 65.40325
Neighbor list builds = 274
Dangerous builds = 0
Setting up Verlet run ...
  Unit style    : metal
  Current step  : 10000
  Time step     : 0.001
Per MPI rank memory allocation (min/avg/max) = 4.846 | 4.846 | 4.846 Mbytes
   Step          Temp          E_pair         E_mol          TotEng         Press          Volume    
     10000   1337.8049     -12265.921      0             -11574.394      327.98612      78293.073    
    100000   1367.0432     -12260.869      0             -11554.229     -1480.5622      78917.713    
Loop time of 825.245 on 1 procs for 90000 steps with 4000 atoms

Performance: 9.423 ns/day, 2.547 hours/ns, 109.058 timesteps/s, 436.234 katom-step/s
99.5% CPU use with 1 MPI tasks x 1 OpenMP threads

MPI task timing breakdown:
Section |  min time  |  avg time  |  max time  |%varavg| %total
---------------------------------------------------------------
Pair    | 792.38     | 792.38     | 792.38     |   0.0 | 96.02
Neigh   | 18.712     | 18.712     | 18.712     |   0.0 |  2.27
Comm    | 2.6097     | 2.6097     | 2.6097     |   0.0 |  0.32
Output  | 0.15657    | 0.15657    | 0.15657    |   0.0 |  0.02
Modify  | 10.211     | 10.211     | 10.211     |   0.0 |  1.24
Other   |            | 1.172      |            |       |  0.14

Nlocal:           4000 ave        4000 max        4000 min
Histogram: 1 0 0 0 0 0 0 0 0 0
Nghost:           6839 ave        6839 max        6839 min
Histogram: 1 0 0 0 0 0 0 0 0 0
Neighs:         259911 ave      259911 max      259911 min
Histogram: 1 0 0 0 0 0 0 0 0 0

Total # of neighbors = 259911
Ave neighs/atom = 64.97775
Neighbor list builds = 2497
Dangerous builds = 0
Setting up cg style minimization ...
  Unit style    : metal
  Current step  : 100000
Per MPI rank memory allocation (min/avg/max) = 5.971 | 5.971 | 5.971 Mbytes
   Step          Temp          E_pair         E_mol          TotEng         Press          Volume    
    100000   1367.0432     -12260.869      0             -11554.229     -1480.5622      78917.713    
    102314   1367.0432     -13168.375      0             -12461.735     -9984.0785      78917.713    
Loop time of 43.4217 on 1 procs for 2314 steps with 4000 atoms

99.5% CPU use with 1 MPI tasks x 1 OpenMP threads

Minimization stats:
  Stopping criterion = linesearch alpha is zero
  Energy initial, next-to-last, final = 
     -12260.8690447272  -13168.3747337834  -13168.3747337834
  Force two-norm initial, final = 64.707536 5.2591002e-05
  Force max component initial, final = 3.733584 1.4393195e-05
  Final line search alpha, max atom move = 1.8351336e-09 2.6413436e-14
  Iterations, force evaluations = 2314 3722

MPI task timing breakdown:
Section |  min time  |  avg time  |  max time  |%varavg| %total
---------------------------------------------------------------
Pair    | 42.645     | 42.645     | 42.645     |   0.0 | 98.21
Neigh   | 0.43577    | 0.43577    | 0.43577    |   0.0 |  1.00
Comm    | 0.10817    | 0.10817    | 0.10817    |   0.0 |  0.25
Output  | 0          | 0          | 0          |   0.0 |  0.00
Modify  | 0          | 0          | 0          |   0.0 |  0.00
Other   |            | 0.2323     |            |       |  0.54

Nlocal:           4000 ave        4000 max        4000 min
Histogram: 1 0 0 0 0 0 0 0 0 0
Nghost:           7203 ave        7203 max        7203 min
Histogram: 1 0 0 0 0 0 0 0 0 0
Neighs:         266423 ave      266423 max      266423 min
Histogram: 1 0 0 0 0 0 0 0 0 0

Total # of neighbors = 266423
Ave neighs/atom = 66.60575
Neighbor list builds = 60
Dangerous builds = 0
Total wall time: 0:16:00
