LAMMPS (29 Aug 2024)
OMP_NUM_THREADS environment is not set. Defaulting to 1 thread. (src/comm.cpp:98)
  using 1 OpenMP thread(s) per MPI task

#---------------------------- Atomic setup ------------------------------------#
units            metal
timestep         0.001
boundary         p p p
lattice          fcc 4.046
Lattice spacing in x,y,z = 4.046 4.046 4.046
region           sim_box block 0 10 0 10 0 10
create_box       1 sim_box
Created orthogonal box = (0 0 0) to (40.46 40.46 40.46)
  1 by 1 by 1 MPI processor grid
create_atoms     1 box
Created 4000 atoms
  using lattice units in orthogonal box = (0 0 0) to (40.46 40.46 40.46)
  create_atoms CPU = 0.001 seconds

pair_style       eam/fs                                             # interatomic potential (Lennard-Jones, EAM, etc.)
pair_coeff       * * ${potentials_dir}/al_eam.fs Al # interatomic potential parameters (ex. eam.alloy Cu_u3.eam)
pair_coeff       * * md/potentials/al_eam.fs Al 
pair_modify      tail yes
neigh_modify     delay 0                                                       # neighbor list update frequency (0 = every timestep)
mass             1 26.981539                                                 # atomic mass
variable         rnd equal round(random(0,999999,42))

#----------------------------- Equilibriation ---------------------------------#
velocity         all create 783.72 ${rnd} dist gaussian              # initial velocities
velocity         all create 783.72 420940 dist gaussian              
fix              f2 all nph iso 0 0 1.0        # barostat
variable         rnd equal round(random(0,999999,0))
fix              f3 all temp/csvr 783.72 783.72 0.1 ${rnd} # thermostat
fix              f3 all temp/csvr 783.72 783.72 0.1 53464 
run              10000                                           # equilibriation run
Neighbor list info ...
  update: every = 1 steps, delay = 0 steps, check = yes
  max neighbors/atom: 2000, page size: 100000
  master list distance cutoff = 8.5
  ghost atom cutoff = 8.5
  binsize = 4.25, bins = 10 10 10
  1 neighbor lists, perpetual/occasional/extra = 1 0 0
  (1) pair eam/fs, perpetual
      attributes: half, newton on
      pair build: half/bin/atomonly/newton
      stencil: half/bin/3d
      bin: standard
Per MPI rank memory allocation (min/avg/max) = 4.462 | 4.462 | 4.462 Mbytes
   Step          Temp          E_pair         E_mol          TotEng         Press          Volume    
         0   783.72        -13642.623      0             -13237.509      6125.3482      66233.489    
     10000   770.37083     -13181.711      0             -12783.498     -1014.0951      69965.189    
Loop time of 97.0382 on 1 procs for 10000 steps with 4000 atoms

Performance: 8.904 ns/day, 2.696 hours/ns, 103.052 timesteps/s, 412.209 katom-step/s
99.5% CPU use with 1 MPI tasks x 1 OpenMP threads

MPI task timing breakdown:
Section |  min time  |  avg time  |  max time  |%varavg| %total
---------------------------------------------------------------
Pair    | 93.895     | 93.895     | 93.895     |   0.0 | 96.76
Neigh   | 1.5889     | 1.5889     | 1.5889     |   0.0 |  1.64
Comm    | 0.30699    | 0.30699    | 0.30699    |   0.0 |  0.32
Output  | 5.4572e-05 | 5.4572e-05 | 5.4572e-05 |   0.0 |  0.00
Modify  | 1.1057     | 1.1057     | 1.1057     |   0.0 |  1.14
Other   |            | 0.1415     |            |       |  0.15

Nlocal:           4000 ave        4000 max        4000 min
Histogram: 1 0 0 0 0 0 0 0 0 0
Nghost:           7975 ave        7975 max        7975 min
Histogram: 1 0 0 0 0 0 0 0 0 0
Neighs:         290224 ave      290224 max      290224 min
Histogram: 1 0 0 0 0 0 0 0 0 0

Total # of neighbors = 290224
Ave neighs/atom = 72.556
Neighbor list builds = 194
Dangerous builds = 0

#----------------------------- Run simulation ---------------------------------#
dump             d1 all custom 10000 md/data/al_fcc/dump_0.84.gz id type x y z # snapshots
run              90000
Per MPI rank memory allocation (min/avg/max) = 4.843 | 4.843 | 4.843 Mbytes
   Step          Temp          E_pair         E_mol          TotEng         Press          Volume    
     10000   770.37083     -13181.711      0             -12783.498     -1014.0951      69965.189    
    100000   786.20424     -13173.596      0             -12767.198     -439.13898      69973.777    
Loop time of 874.24 on 1 procs for 90000 steps with 4000 atoms

Performance: 8.895 ns/day, 2.698 hours/ns, 102.947 timesteps/s, 411.786 katom-step/s
99.5% CPU use with 1 MPI tasks x 1 OpenMP threads

MPI task timing breakdown:
Section |  min time  |  avg time  |  max time  |%varavg| %total
---------------------------------------------------------------
Pair    | 845.71     | 845.71     | 845.71     |   0.0 | 96.74
Neigh   | 14.327     | 14.327     | 14.327     |   0.0 |  1.64
Comm    | 2.7755     | 2.7755     | 2.7755     |   0.0 |  0.32
Output  | 0.14056    | 0.14056    | 0.14056    |   0.0 |  0.02
Modify  | 10.061     | 10.061     | 10.061     |   0.0 |  1.15
Other   |            | 1.227      |            |       |  0.14

Nlocal:           4000 ave        4000 max        4000 min
Histogram: 1 0 0 0 0 0 0 0 0 0
Nghost:           7968 ave        7968 max        7968 min
Histogram: 1 0 0 0 0 0 0 0 0 0
Neighs:         290157 ave      290157 max      290157 min
Histogram: 1 0 0 0 0 0 0 0 0 0

Total # of neighbors = 290157
Ave neighs/atom = 72.53925
Neighbor list builds = 1745
Dangerous builds = 0
undump           d1
min_modify       line forcezero
minimize         0 0 100000 100000                                                                               # minimize energy
Per MPI rank memory allocation (min/avg/max) = 5.968 | 5.968 | 5.968 Mbytes
   Step          Temp          E_pair         E_mol          TotEng         Press          Volume    
    100000   786.20424     -13173.596      0             -12767.198     -439.13898      69973.777    
    100075   786.20424     -13596.193      0             -13189.795     -31687.2        69973.777    
Loop time of 1.13343 on 1 procs for 75 steps with 4000 atoms

99.7% CPU use with 1 MPI tasks x 1 OpenMP threads

Minimization stats:
  Stopping criterion = linesearch alpha is zero
  Energy initial, next-to-last, final = 
     -13173.5960368396  -13596.1927065853  -13596.1927065853
  Force two-norm initial, final = 54.725816 2.9259694e-05
  Force max component initial, final = 2.327093 1.122422e-06
  Final line search alpha, max atom move = 0.050877394 5.7105906e-08
  Iterations, force evaluations = 75 143

MPI task timing breakdown:
Section |  min time  |  avg time  |  max time  |%varavg| %total
---------------------------------------------------------------
Pair    | 1.1216     | 1.1216     | 1.1216     |   0.0 | 98.96
Neigh   | 0          | 0          | 0          |   0.0 |  0.00
Comm    | 0.0041384  | 0.0041384  | 0.0041384  |   0.0 |  0.37
Output  | 0          | 0          | 0          |   0.0 |  0.00
Modify  | 0          | 0          | 0          |   0.0 |  0.00
Other   |            | 0.007659   |            |       |  0.68

Nlocal:           4000 ave        4000 max        4000 min
Histogram: 1 0 0 0 0 0 0 0 0 0
Nghost:           7963 ave        7963 max        7963 min
Histogram: 1 0 0 0 0 0 0 0 0 0
Neighs:         290279 ave      290279 max      290279 min
Histogram: 1 0 0 0 0 0 0 0 0 0

Total # of neighbors = 290279
Ave neighs/atom = 72.56975
Neighbor list builds = 0
Dangerous builds = 0
write_dump       all custom md/data/al_fcc/dump_0.84_relaxed.gz id type x y z
#------------------------------------------------------------------------------#
Total wall time: 0:16:12
