LAMMPS (29 Aug 2024)
OMP_NUM_THREADS environment is not set. Defaulting to 1 thread. (src/comm.cpp:98)
  using 1 OpenMP thread(s) per MPI task
Lattice spacing in x,y,z = 4.046 4.046 4.046
Created orthogonal box = (0 0 0) to (40.46 40.46 40.46)
  1 by 1 by 1 MPI processor grid
Created 4000 atoms
  using lattice units in orthogonal box = (0 0 0) to (40.46 40.46 40.46)
  create_atoms CPU = 0.001 seconds
Neighbor list info ...
  update: every = 1 steps, delay = 0 steps, check = yes
  max neighbors/atom: 2000, page size: 100000
  master list distance cutoff = 8.5
  ghost atom cutoff = 8.5
  binsize = 4.25, bins = 10 10 10
  1 neighbor lists, perpetual/occasional/extra = 1 0 0
  (1) pair eam/fs, perpetual
      attributes: half, newton on
      pair build: half/bin/atomonly/newton
      stencil: half/bin/3d
      bin: standard
Setting up Verlet run ...
  Unit style    : metal
  Current step  : 0
  Time step     : 0.001
Per MPI rank memory allocation (min/avg/max) = 4.462 | 4.462 | 4.462 Mbytes
   Step          Temp          E_pair         E_mol          TotEng         Press          Volume    
         0   895.68        -13642.623      0             -13179.636      7058.6463      66233.489    
     10000   870.37021     -13087.577      0             -12637.673     -1030.6691      70688.271    
Loop time of 96.5512 on 1 procs for 10000 steps with 4000 atoms

Performance: 8.949 ns/day, 2.682 hours/ns, 103.572 timesteps/s, 414.288 katom-step/s
99.5% CPU use with 1 MPI tasks x 1 OpenMP threads

MPI task timing breakdown:
Section |  min time  |  avg time  |  max time  |%varavg| %total
---------------------------------------------------------------
Pair    | 93.293     | 93.293     | 93.293     |   0.0 | 96.63
Neigh   | 1.7194     | 1.7194     | 1.7194     |   0.0 |  1.78
Comm    | 0.30703    | 0.30703    | 0.30703    |   0.0 |  0.32
Output  | 6.3599e-05 | 6.3599e-05 | 6.3599e-05 |   0.0 |  0.00
Modify  | 1.1024     | 1.1024     | 1.1024     |   0.0 |  1.14
Other   |            | 0.129      |            |       |  0.13

Nlocal:           4000 ave        4000 max        4000 min
Histogram: 1 0 0 0 0 0 0 0 0 0
Nghost:           7829 ave        7829 max        7829 min
Histogram: 1 0 0 0 0 0 0 0 0 0
Neighs:         289204 ave      289204 max      289204 min
Histogram: 1 0 0 0 0 0 0 0 0 0

Total # of neighbors = 289204
Ave neighs/atom = 72.301
Neighbor list builds = 209
Dangerous builds = 0
Setting up Verlet run ...
  Unit style    : metal
  Current step  : 10000
  Time step     : 0.001
Per MPI rank memory allocation (min/avg/max) = 4.843 | 4.843 | 4.843 Mbytes
   Step          Temp          E_pair         E_mol          TotEng         Press          Volume    
     10000   870.37021     -13087.577      0             -12637.673     -1030.6691      70688.271    
    100000   896.396       -13079.139      0             -12615.782     -470.88479      70698.397    
Loop time of 865.787 on 1 procs for 90000 steps with 4000 atoms

Performance: 8.981 ns/day, 2.672 hours/ns, 103.952 timesteps/s, 415.806 katom-step/s
99.5% CPU use with 1 MPI tasks x 1 OpenMP threads

MPI task timing breakdown:
Section |  min time  |  avg time  |  max time  |%varavg| %total
---------------------------------------------------------------
Pair    | 836.02     | 836.02     | 836.02     |   0.0 | 96.56
Neigh   | 15.697     | 15.697     | 15.697     |   0.0 |  1.81
Comm    | 2.7962     | 2.7962     | 2.7962     |   0.0 |  0.32
Output  | 0.14208    | 0.14208    | 0.14208    |   0.0 |  0.02
Modify  | 9.9606     | 9.9606     | 9.9606     |   0.0 |  1.15
Other   |            | 1.173      |            |       |  0.14

Nlocal:           4000 ave        4000 max        4000 min
Histogram: 1 0 0 0 0 0 0 0 0 0
Nghost:           7848 ave        7848 max        7848 min
Histogram: 1 0 0 0 0 0 0 0 0 0
Neighs:         289067 ave      289067 max      289067 min
Histogram: 1 0 0 0 0 0 0 0 0 0

Total # of neighbors = 289067
Ave neighs/atom = 72.26675
Neighbor list builds = 1904
Dangerous builds = 0
Setting up cg style minimization ...
  Unit style    : metal
  Current step  : 100000
Per MPI rank memory allocation (min/avg/max) = 5.968 | 5.968 | 5.968 Mbytes
   Step          Temp          E_pair         E_mol          TotEng         Press          Volume    
    100000   896.396       -13079.139      0             -12615.782     -470.88479      70698.397    
    100086   896.396       -13577.535      0             -13114.178     -37595.728      70698.397    
Loop time of 1.18984 on 1 procs for 86 steps with 4000 atoms

99.5% CPU use with 1 MPI tasks x 1 OpenMP threads

Minimization stats:
  Stopping criterion = linesearch alpha is zero
  Energy initial, next-to-last, final = 
     -13079.1392149901  -13577.5348084487  -13577.5348084487
  Force two-norm initial, final = 57.054562 2.448898e-05
  Force max component initial, final = 2.1825929 9.3910957e-07
  Final line search alpha, max atom move = 0.0049905042 4.6866302e-09
  Iterations, force evaluations = 86 156

MPI task timing breakdown:
Section |  min time  |  avg time  |  max time  |%varavg| %total
---------------------------------------------------------------
Pair    | 1.1678     | 1.1678     | 1.1678     |   0.0 | 98.15
Neigh   | 0.0077827  | 0.0077827  | 0.0077827  |   0.0 |  0.65
Comm    | 0.004842   | 0.004842   | 0.004842   |   0.0 |  0.41
Output  | 0          | 0          | 0          |   0.0 |  0.00
Modify  | 0          | 0          | 0          |   0.0 |  0.00
Other   |            | 0.009381   |            |       |  0.79

Nlocal:           4000 ave        4000 max        4000 min
Histogram: 1 0 0 0 0 0 0 0 0 0
Nghost:           8195 ave        8195 max        8195 min
Histogram: 1 0 0 0 0 0 0 0 0 0
Neighs:         279950 ave      279950 max      279950 min
Histogram: 1 0 0 0 0 0 0 0 0 0

Total # of neighbors = 279950
Ave neighs/atom = 69.9875
Neighbor list builds = 1
Dangerous builds = 0
Total wall time: 0:16:03
