LAMMPS (29 Aug 2024)
OMP_NUM_THREADS environment is not set. Defaulting to 1 thread. (src/comm.cpp:98)
  using 1 OpenMP thread(s) per MPI task
Lattice spacing in x,y,z = 4.046 4.046 4.046
Created orthogonal box = (0 0 0) to (40.46 40.46 40.46)
  1 by 1 by 1 MPI processor grid
Created 4000 atoms
  using lattice units in orthogonal box = (0 0 0) to (40.46 40.46 40.46)
  create_atoms CPU = 0.001 seconds
Neighbor list info ...
  update: every = 1 steps, delay = 0 steps, check = yes
  max neighbors/atom: 2000, page size: 100000
  master list distance cutoff = 8.5
  ghost atom cutoff = 8.5
  binsize = 4.25, bins = 10 10 10
  1 neighbor lists, perpetual/occasional/extra = 1 0 0
  (1) pair eam/fs, perpetual
      attributes: half, newton on
      pair build: half/bin/atomonly/newton
      stencil: half/bin/3d
      bin: standard
Setting up Verlet run ...
  Unit style    : metal
  Current step  : 0
  Time step     : 0.001
Per MPI rank memory allocation (min/avg/max) = 4.462 | 4.462 | 4.462 Mbytes
   Step          Temp          E_pair         E_mol          TotEng         Press          Volume    
         0   1268.88       -13642.623      0             -12986.725      10169.64       66233.489    
     10000   1235.9908     -12345.535      0             -11706.638     -1405.5037      77758.642    
Loop time of 93.2856 on 1 procs for 10000 steps with 4000 atoms

Performance: 9.262 ns/day, 2.591 hours/ns, 107.198 timesteps/s, 428.791 katom-step/s
99.5% CPU use with 1 MPI tasks x 1 OpenMP threads

MPI task timing breakdown:
Section |  min time  |  avg time  |  max time  |%varavg| %total
---------------------------------------------------------------
Pair    | 89.759     | 89.759     | 89.759     |   0.0 | 96.22
Neigh   | 1.9848     | 1.9848     | 1.9848     |   0.0 |  2.13
Comm    | 0.29295    | 0.29295    | 0.29295    |   0.0 |  0.31
Output  | 5.855e-05  | 5.855e-05  | 5.855e-05  |   0.0 |  0.00
Modify  | 1.1206     | 1.1206     | 1.1206     |   0.0 |  1.20
Other   |            | 0.1277     |            |       |  0.14

Nlocal:           4000 ave        4000 max        4000 min
Histogram: 1 0 0 0 0 0 0 0 0 0
Nghost:           6910 ave        6910 max        6910 min
Histogram: 1 0 0 0 0 0 0 0 0 0
Neighs:         264002 ave      264002 max      264002 min
Histogram: 1 0 0 0 0 0 0 0 0 0

Total # of neighbors = 264002
Ave neighs/atom = 66.0005
Neighbor list builds = 261
Dangerous builds = 0
Setting up Verlet run ...
  Unit style    : metal
  Current step  : 10000
  Time step     : 0.001
Per MPI rank memory allocation (min/avg/max) = 4.846 | 4.846 | 4.846 Mbytes
   Step          Temp          E_pair         E_mol          TotEng         Press          Volume    
     10000   1235.9908     -12345.535      0             -11706.638     -1405.5037      77758.642    
    100000   1269.416      -12345.866      0             -11689.691     -1587.6708      77793.797    
Loop time of 834.261 on 1 procs for 90000 steps with 4000 atoms

Performance: 9.321 ns/day, 2.575 hours/ns, 107.880 timesteps/s, 431.519 katom-step/s
99.5% CPU use with 1 MPI tasks x 1 OpenMP threads

MPI task timing breakdown:
Section |  min time  |  avg time  |  max time  |%varavg| %total
---------------------------------------------------------------
Pair    | 802.33     | 802.33     | 802.33     |   0.0 | 96.17
Neigh   | 17.841     | 17.841     | 17.841     |   0.0 |  2.14
Comm    | 2.6153     | 2.6153     | 2.6153     |   0.0 |  0.31
Output  | 0.15749    | 0.15749    | 0.15749    |   0.0 |  0.02
Modify  | 10.168     | 10.168     | 10.168     |   0.0 |  1.22
Other   |            | 1.147      |            |       |  0.14

Nlocal:           4000 ave        4000 max        4000 min
Histogram: 1 0 0 0 0 0 0 0 0 0
Nghost:           6950 ave        6950 max        6950 min
Histogram: 1 0 0 0 0 0 0 0 0 0
Neighs:         263653 ave      263653 max      263653 min
Histogram: 1 0 0 0 0 0 0 0 0 0

Total # of neighbors = 263653
Ave neighs/atom = 65.91325
Neighbor list builds = 2384
Dangerous builds = 0
Setting up cg style minimization ...
  Unit style    : metal
  Current step  : 100000
Per MPI rank memory allocation (min/avg/max) = 5.971 | 5.971 | 5.971 Mbytes
   Step          Temp          E_pair         E_mol          TotEng         Press          Volume    
    100000   1269.416      -12345.866      0             -11689.691     -1587.6708      77793.797    
    102487   1269.416      -13191.545      0             -12535.369     -10128.289      77793.797    
Loop time of 38.1817 on 1 procs for 2487 steps with 4000 atoms

99.5% CPU use with 1 MPI tasks x 1 OpenMP threads

Minimization stats:
  Stopping criterion = linesearch alpha is zero
  Energy initial, next-to-last, final = 
     -12345.8664505523  -13191.5447801737  -13191.5447801737
  Force two-norm initial, final = 62.603021 4.2702184e-05
  Force max component initial, final = 3.4086595 1.1872951e-05
  Final line search alpha, max atom move = 1.7233607e-07 2.0461377e-12
  Iterations, force evaluations = 2487 3992

MPI task timing breakdown:
Section |  min time  |  avg time  |  max time  |%varavg| %total
---------------------------------------------------------------
Pair    | 37.318     | 37.318     | 37.318     |   0.0 | 97.74
Neigh   | 0.50375    | 0.50375    | 0.50375    |   0.0 |  1.32
Comm    | 0.11312    | 0.11312    | 0.11312    |   0.0 |  0.30
Output  | 0          | 0          | 0          |   0.0 |  0.00
Modify  | 0          | 0          | 0          |   0.0 |  0.00
Other   |            | 0.2466     |            |       |  0.65

Nlocal:           4000 ave        4000 max        4000 min
Histogram: 1 0 0 0 0 0 0 0 0 0
Nghost:           6905 ave        6905 max        6905 min
Histogram: 1 0 0 0 0 0 0 0 0 0
Neighs:         271039 ave      271039 max      271039 min
Histogram: 1 0 0 0 0 0 0 0 0 0

Total # of neighbors = 271039
Ave neighs/atom = 67.75975
Neighbor list builds = 69
Dangerous builds = 0
Total wall time: 0:16:05
