LAMMPS (29 Aug 2024)
OMP_NUM_THREADS environment is not set. Defaulting to 1 thread. (src/comm.cpp:98)
  using 1 OpenMP thread(s) per MPI task

#---------------------------- Atomic setup ------------------------------------#
units            metal
timestep         0.001
boundary         p p p
lattice          fcc 4.046
Lattice spacing in x,y,z = 4.046 4.046 4.046
region           sim_box block 0 10 0 10 0 10
create_box       1 sim_box
Created orthogonal box = (0 0 0) to (40.46 40.46 40.46)
  1 by 1 by 1 MPI processor grid
create_atoms     1 box
Created 4000 atoms
  using lattice units in orthogonal box = (0 0 0) to (40.46 40.46 40.46)
  create_atoms CPU = 0.001 seconds

pair_style       eam/fs                                             # interatomic potential (Lennard-Jones, EAM, etc.)
pair_coeff       * * ${potentials_dir}/al_eam.fs Al # interatomic potential parameters (ex. eam.alloy Cu_u3.eam)
pair_coeff       * * md/potentials/al_eam.fs Al 
pair_modify      tail yes
neigh_modify     delay 0                                                       # neighbor list update frequency (0 = every timestep)
mass             1 26.981539                                                 # atomic mass
variable         rnd equal round(random(0,999999,42))

#----------------------------- Equilibriation ---------------------------------#
velocity         all create 298.56 ${rnd} dist gaussian              # initial velocities
velocity         all create 298.56 420940 dist gaussian              
fix              f2 all nph iso 0 0 1.0        # barostat
variable         rnd equal round(random(0,999999,0))
fix              f3 all temp/csvr 298.56 298.56 0.1 ${rnd} # thermostat
fix              f3 all temp/csvr 298.56 298.56 0.1 53464 
run              10000                                           # equilibriation run
Neighbor list info ...
  update: every = 1 steps, delay = 0 steps, check = yes
  max neighbors/atom: 2000, page size: 100000
  master list distance cutoff = 8.5
  ghost atom cutoff = 8.5
  binsize = 4.25, bins = 10 10 10
  1 neighbor lists, perpetual/occasional/extra = 1 0 0
  (1) pair eam/fs, perpetual
      attributes: half, newton on
      pair build: half/bin/atomonly/newton
      stencil: half/bin/3d
      bin: standard
Per MPI rank memory allocation (min/avg/max) = 4.462 | 4.462 | 4.462 Mbytes
   Step          Temp          E_pair         E_mol          TotEng         Press          Volume    
         0   298.56        -13642.623      0             -13488.294      2081.0563      66233.489    
     10000   288.62057     -13488.378      0             -13339.186     -161.38949      67592.671    
Loop time of 91.7452 on 1 procs for 10000 steps with 4000 atoms

Performance: 9.417 ns/day, 2.548 hours/ns, 108.998 timesteps/s, 435.990 katom-step/s
99.5% CPU use with 1 MPI tasks x 1 OpenMP threads

MPI task timing breakdown:
Section |  min time  |  avg time  |  max time  |%varavg| %total
---------------------------------------------------------------
Pair    | 90.235     | 90.235     | 90.235     |   0.0 | 98.35
Neigh   | 0          | 0          | 0          |   0.0 |  0.00
Comm    | 0.28977    | 0.28977    | 0.28977    |   0.0 |  0.32
Output  | 5.3941e-05 | 5.3941e-05 | 5.3941e-05 |   0.0 |  0.00
Modify  | 1.0981     | 1.0981     | 1.0981     |   0.0 |  1.20
Other   |            | 0.1225     |            |       |  0.13

Nlocal:           4000 ave        4000 max        4000 min
Histogram: 1 0 0 0 0 0 0 0 0 0
Nghost:           8195 ave        8195 max        8195 min
Histogram: 1 0 0 0 0 0 0 0 0 0
Neighs:         280000 ave      280000 max      280000 min
Histogram: 1 0 0 0 0 0 0 0 0 0

Total # of neighbors = 280000
Ave neighs/atom = 70
Neighbor list builds = 0
Dangerous builds = 0

#----------------------------- Run simulation ---------------------------------#
dump             d1 all custom 10000 md/data/al_fcc/dump_0.32.gz id type x y z # snapshots
run              90000
Per MPI rank memory allocation (min/avg/max) = 4.462 | 4.462 | 4.462 Mbytes
   Step          Temp          E_pair         E_mol          TotEng         Press          Volume    
     10000   288.62057     -13488.378      0             -13339.186     -161.38949      67592.671    
    100000   297.70726     -13488.495      0             -13334.607      1166.6952      67492.338    
Loop time of 858.514 on 1 procs for 90000 steps with 4000 atoms

Performance: 9.058 ns/day, 2.650 hours/ns, 104.832 timesteps/s, 419.329 katom-step/s
99.5% CPU use with 1 MPI tasks x 1 OpenMP threads

MPI task timing breakdown:
Section |  min time  |  avg time  |  max time  |%varavg| %total
---------------------------------------------------------------
Pair    | 844.74     | 844.74     | 844.74     |   0.0 | 98.40
Neigh   | 0          | 0          | 0          |   0.0 |  0.00
Comm    | 2.612      | 2.612      | 2.612      |   0.0 |  0.30
Output  | 0.1445     | 0.1445     | 0.1445     |   0.0 |  0.02
Modify  | 9.9211     | 9.9211     | 9.9211     |   0.0 |  1.16
Other   |            | 1.101      |            |       |  0.13

Nlocal:           4000 ave        4000 max        4000 min
Histogram: 1 0 0 0 0 0 0 0 0 0
Nghost:           8193 ave        8193 max        8193 min
Histogram: 1 0 0 0 0 0 0 0 0 0
Neighs:         290898 ave      290898 max      290898 min
Histogram: 1 0 0 0 0 0 0 0 0 0

Total # of neighbors = 290898
Ave neighs/atom = 72.7245
Neighbor list builds = 0
Dangerous builds = 0
undump           d1
min_modify       line forcezero
minimize         0 0 100000 100000                                                                               # minimize energy
Per MPI rank memory allocation (min/avg/max) = 5.587 | 5.587 | 5.587 Mbytes
   Step          Temp          E_pair         E_mol          TotEng         Press          Volume    
    100000   297.70726     -13488.495      0             -13334.607      1166.6952      67492.338    
    100063   297.70726     -13636.785      0             -13482.897     -11712.834      67492.338    
Loop time of 1.27516 on 1 procs for 63 steps with 4000 atoms

99.6% CPU use with 1 MPI tasks x 1 OpenMP threads

Minimization stats:
  Stopping criterion = linesearch alpha is zero
  Energy initial, next-to-last, final = 
     -13488.4951414643  -13636.7850823078  -13636.7850823078
  Force two-norm initial, final = 36.14209 3.2893873e-05
  Force max component initial, final = 1.3966407 1.1772067e-06
  Final line search alpha, max atom move = 3.8369957e-06 4.516937e-12
  Iterations, force evaluations = 63 133

MPI task timing breakdown:
Section |  min time  |  avg time  |  max time  |%varavg| %total
---------------------------------------------------------------
Pair    | 1.2645     | 1.2645     | 1.2645     |   0.0 | 99.17
Neigh   | 0          | 0          | 0          |   0.0 |  0.00
Comm    | 0.0038503  | 0.0038503  | 0.0038503  |   0.0 |  0.30
Output  | 0          | 0          | 0          |   0.0 |  0.00
Modify  | 0          | 0          | 0          |   0.0 |  0.00
Other   |            | 0.006762   |            |       |  0.53

Nlocal:           4000 ave        4000 max        4000 min
Histogram: 1 0 0 0 0 0 0 0 0 0
Nghost:           8195 ave        8195 max        8195 min
Histogram: 1 0 0 0 0 0 0 0 0 0
Neighs:         291459 ave      291459 max      291459 min
Histogram: 1 0 0 0 0 0 0 0 0 0

Total # of neighbors = 291459
Ave neighs/atom = 72.86475
Neighbor list builds = 0
Dangerous builds = 0
write_dump       all custom md/data/al_fcc/dump_0.32_relaxed.gz id type x y z
#------------------------------------------------------------------------------#
Total wall time: 0:15:51
