LAMMPS (29 Aug 2024)
OMP_NUM_THREADS environment is not set. Defaulting to 1 thread. (src/comm.cpp:98)
  using 1 OpenMP thread(s) per MPI task

#---------------------------- Atomic setup ------------------------------------#
units            metal
timestep         0.001
boundary         p p p
lattice          fcc 4.046
Lattice spacing in x,y,z = 4.046 4.046 4.046
region           sim_box block 0 10 0 10 0 10
create_box       1 sim_box
Created orthogonal box = (0 0 0) to (40.46 40.46 40.46)
  1 by 1 by 1 MPI processor grid
create_atoms     1 box
Created 4000 atoms
  using lattice units in orthogonal box = (0 0 0) to (40.46 40.46 40.46)
  create_atoms CPU = 0.001 seconds

pair_style       eam/fs                                             # interatomic potential (Lennard-Jones, EAM, etc.)
pair_coeff       * * ${potentials_dir}/al_eam.fs Al # interatomic potential parameters (ex. eam.alloy Cu_u3.eam)
pair_coeff       * * md/potentials/al_eam.fs Al 
pair_modify      tail yes
neigh_modify     delay 0                                                       # neighbor list update frequency (0 = every timestep)
mass             1 26.981539                                                 # atomic mass
variable         rnd equal round(random(0,999999,42))

#----------------------------- Equilibriation ---------------------------------#
velocity         all create 223.92 ${rnd} dist gaussian              # initial velocities
velocity         all create 223.92 420940 dist gaussian              
fix              f2 all nph iso 0 0 1.0        # barostat
variable         rnd equal round(random(0,999999,0))
fix              f3 all temp/csvr 223.92 223.92 0.1 ${rnd} # thermostat
fix              f3 all temp/csvr 223.92 223.92 0.1 53464 
run              10000                                           # equilibriation run
Neighbor list info ...
  update: every = 1 steps, delay = 0 steps, check = yes
  max neighbors/atom: 2000, page size: 100000
  master list distance cutoff = 8.5
  ghost atom cutoff = 8.5
  binsize = 4.25, bins = 10 10 10
  1 neighbor lists, perpetual/occasional/extra = 1 0 0
  (1) pair eam/fs, perpetual
      attributes: half, newton on
      pair build: half/bin/atomonly/newton
      stencil: half/bin/3d
      bin: standard
Per MPI rank memory allocation (min/avg/max) = 4.462 | 4.462 | 4.462 Mbytes
   Step          Temp          E_pair         E_mol          TotEng         Press          Volume    
         0   223.92        -13642.623      0             -13526.876      1458.8575      66233.489    
     10000   219.86265     -13530.598      0             -13416.949      1498.7256      67130.379    
Loop time of 91.4811 on 1 procs for 10000 steps with 4000 atoms

Performance: 9.445 ns/day, 2.541 hours/ns, 109.312 timesteps/s, 437.249 katom-step/s
99.5% CPU use with 1 MPI tasks x 1 OpenMP threads

MPI task timing breakdown:
Section |  min time  |  avg time  |  max time  |%varavg| %total
---------------------------------------------------------------
Pair    | 89.974     | 89.974     | 89.974     |   0.0 | 98.35
Neigh   | 0          | 0          | 0          |   0.0 |  0.00
Comm    | 0.28724    | 0.28724    | 0.28724    |   0.0 |  0.31
Output  | 5.7829e-05 | 5.7829e-05 | 5.7829e-05 |   0.0 |  0.00
Modify  | 1.0999     | 1.0999     | 1.0999     |   0.0 |  1.20
Other   |            | 0.1196     |            |       |  0.13

Nlocal:           4000 ave        4000 max        4000 min
Histogram: 1 0 0 0 0 0 0 0 0 0
Nghost:           8195 ave        8195 max        8195 min
Histogram: 1 0 0 0 0 0 0 0 0 0
Neighs:         280000 ave      280000 max      280000 min
Histogram: 1 0 0 0 0 0 0 0 0 0

Total # of neighbors = 280000
Ave neighs/atom = 70
Neighbor list builds = 0
Dangerous builds = 0

#----------------------------- Run simulation ---------------------------------#
dump             d1 all custom 10000 md/data/al_fcc/dump_0.24.gz id type x y z # snapshots
run              90000
Per MPI rank memory allocation (min/avg/max) = 4.462 | 4.462 | 4.462 Mbytes
   Step          Temp          E_pair         E_mol          TotEng         Press          Volume    
     10000   219.86265     -13530.598      0             -13416.949      1498.7256      67130.379    
    100000   225.61211     -13530.019      0             -13413.397      74.638046      67244.546    
Loop time of 849.929 on 1 procs for 90000 steps with 4000 atoms

Performance: 9.149 ns/day, 2.623 hours/ns, 105.891 timesteps/s, 423.565 katom-step/s
99.5% CPU use with 1 MPI tasks x 1 OpenMP threads

MPI task timing breakdown:
Section |  min time  |  avg time  |  max time  |%varavg| %total
---------------------------------------------------------------
Pair    | 836.13     | 836.13     | 836.13     |   0.0 | 98.38
Neigh   | 0          | 0          | 0          |   0.0 |  0.00
Comm    | 2.5885     | 2.5885     | 2.5885     |   0.0 |  0.30
Output  | 0.14485    | 0.14485    | 0.14485    |   0.0 |  0.02
Modify  | 9.9594     | 9.9594     | 9.9594     |   0.0 |  1.17
Other   |            | 1.105      |            |       |  0.13

Nlocal:           4000 ave        4000 max        4000 min
Histogram: 1 0 0 0 0 0 0 0 0 0
Nghost:           8195 ave        8195 max        8195 min
Histogram: 1 0 0 0 0 0 0 0 0 0
Neighs:         290968 ave      290968 max      290968 min
Histogram: 1 0 0 0 0 0 0 0 0 0

Total # of neighbors = 290968
Ave neighs/atom = 72.742
Neighbor list builds = 0
Dangerous builds = 0
undump           d1
min_modify       line forcezero
minimize         0 0 100000 100000                                                                               # minimize energy
Per MPI rank memory allocation (min/avg/max) = 5.587 | 5.587 | 5.587 Mbytes
   Step          Temp          E_pair         E_mol          TotEng         Press          Volume    
    100000   225.61211     -13530.019      0             -13413.397      74.638046      67244.546    
    100062   225.61211     -13638.774      0             -13522.153     -9720.6711      67244.546    
Loop time of 1.25771 on 1 procs for 62 steps with 4000 atoms

99.5% CPU use with 1 MPI tasks x 1 OpenMP threads

Minimization stats:
  Stopping criterion = linesearch alpha is zero
  Energy initial, next-to-last, final = 
     -13530.0186732233  -13638.7742911809  -13638.7742911809
  Force two-norm initial, final = 31.02434 1.8094857e-05
  Force max component initial, final = 1.1155373 6.3579103e-07
  Final line search alpha, max atom move = 4.6561725e-05 2.9603527e-11
  Iterations, force evaluations = 62 133

MPI task timing breakdown:
Section |  min time  |  avg time  |  max time  |%varavg| %total
---------------------------------------------------------------
Pair    | 1.247      | 1.247      | 1.247      |   0.0 | 99.15
Neigh   | 0          | 0          | 0          |   0.0 |  0.00
Comm    | 0.0039504  | 0.0039504  | 0.0039504  |   0.0 |  0.31
Output  | 0          | 0          | 0          |   0.0 |  0.00
Modify  | 0          | 0          | 0          |   0.0 |  0.00
Other   |            | 0.006787   |            |       |  0.54

Nlocal:           4000 ave        4000 max        4000 min
Histogram: 1 0 0 0 0 0 0 0 0 0
Nghost:           8195 ave        8195 max        8195 min
Histogram: 1 0 0 0 0 0 0 0 0 0
Neighs:         290095 ave      290095 max      290095 min
Histogram: 1 0 0 0 0 0 0 0 0 0

Total # of neighbors = 290095
Ave neighs/atom = 72.52375
Neighbor list builds = 0
Dangerous builds = 0
write_dump       all custom md/data/al_fcc/dump_0.24_relaxed.gz id type x y z
#------------------------------------------------------------------------------#
Total wall time: 0:15:42
