LAMMPS (29 Aug 2024)
OMP_NUM_THREADS environment is not set. Defaulting to 1 thread. (src/comm.cpp:98)
  using 1 OpenMP thread(s) per MPI task
Lattice spacing in x,y,z = 4.046 4.046 4.046
Created orthogonal box = (0 0 0) to (40.46 40.46 40.46)
  1 by 1 by 1 MPI processor grid
Created 4000 atoms
  using lattice units in orthogonal box = (0 0 0) to (40.46 40.46 40.46)
  create_atoms CPU = 0.000 seconds
Neighbor list info ...
  update: every = 1 steps, delay = 0 steps, check = yes
  max neighbors/atom: 2000, page size: 100000
  master list distance cutoff = 8.5
  ghost atom cutoff = 8.5
  binsize = 4.25, bins = 10 10 10
  1 neighbor lists, perpetual/occasional/extra = 1 0 0
  (1) pair eam/fs, perpetual
      attributes: half, newton on
      pair build: half/bin/atomonly/newton
      stencil: half/bin/3d
      bin: standard
Setting up Verlet run ...
  Unit style    : metal
  Current step  : 0
  Time step     : 0.001
Per MPI rank memory allocation (min/avg/max) = 4.462 | 4.462 | 4.462 Mbytes
   Step          Temp          E_pair         E_mol          TotEng         Press          Volume    
         0   186.6         -13642.623      0             -13546.168      1147.7581      66233.489    
     10000   181.85401     -13549.231      0             -13455.229     -372.06156      67114.036    
Loop time of 89.9808 on 1 procs for 10000 steps with 4000 atoms

Performance: 9.602 ns/day, 2.499 hours/ns, 111.135 timesteps/s, 444.539 katom-step/s
99.2% CPU use with 1 MPI tasks x 1 OpenMP threads

MPI task timing breakdown:
Section |  min time  |  avg time  |  max time  |%varavg| %total
---------------------------------------------------------------
Pair    | 88.486     | 88.486     | 88.486     |   0.0 | 98.34
Neigh   | 0          | 0          | 0          |   0.0 |  0.00
Comm    | 0.28607    | 0.28607    | 0.28607    |   0.0 |  0.32
Output  | 0.00018802 | 0.00018802 | 0.00018802 |   0.0 |  0.00
Modify  | 1.0928     | 1.0928     | 1.0928     |   0.0 |  1.21
Other   |            | 0.1156     |            |       |  0.13

Nlocal:           4000 ave        4000 max        4000 min
Histogram: 1 0 0 0 0 0 0 0 0 0
Nghost:           8195 ave        8195 max        8195 min
Histogram: 1 0 0 0 0 0 0 0 0 0
Neighs:         280000 ave      280000 max      280000 min
Histogram: 1 0 0 0 0 0 0 0 0 0

Total # of neighbors = 280000
Ave neighs/atom = 70
Neighbor list builds = 0
Dangerous builds = 0
Setting up Verlet run ...
  Unit style    : metal
  Current step  : 10000
  Time step     : 0.001
Per MPI rank memory allocation (min/avg/max) = 4.462 | 4.462 | 4.462 Mbytes
   Step          Temp          E_pair         E_mol          TotEng         Press          Volume    
     10000   181.85401     -13549.231      0             -13455.229     -372.06156      67114.036    
    100000   184.83614     -13547.174      0             -13451.63       897.93994      67035.235    
Loop time of 839.112 on 1 procs for 90000 steps with 4000 atoms

Performance: 9.267 ns/day, 2.590 hours/ns, 107.256 timesteps/s, 429.025 katom-step/s
99.5% CPU use with 1 MPI tasks x 1 OpenMP threads

MPI task timing breakdown:
Section |  min time  |  avg time  |  max time  |%varavg| %total
---------------------------------------------------------------
Pair    | 825.3      | 825.3      | 825.3      |   0.0 | 98.35
Neigh   | 0          | 0          | 0          |   0.0 |  0.00
Comm    | 2.5902     | 2.5902     | 2.5902     |   0.0 |  0.31
Output  | 0.14657    | 0.14657    | 0.14657    |   0.0 |  0.02
Modify  | 9.9088     | 9.9088     | 9.9088     |   0.0 |  1.18
Other   |            | 1.165      |            |       |  0.14

Nlocal:           4000 ave        4000 max        4000 min
Histogram: 1 0 0 0 0 0 0 0 0 0
Nghost:           8195 ave        8195 max        8195 min
Histogram: 1 0 0 0 0 0 0 0 0 0
Neighs:         289457 ave      289457 max      289457 min
Histogram: 1 0 0 0 0 0 0 0 0 0

Total # of neighbors = 289457
Ave neighs/atom = 72.36425
Neighbor list builds = 0
Dangerous builds = 0
Setting up cg style minimization ...
  Unit style    : metal
  Current step  : 100000
Per MPI rank memory allocation (min/avg/max) = 5.587 | 5.587 | 5.587 Mbytes
   Step          Temp          E_pair         E_mol          TotEng         Press          Volume    
    100000   184.83614     -13547.174      0             -13451.63       897.93994      67035.235    
    100061   184.83614     -13640.142      0             -13544.599     -7837.3059      67035.235    
Loop time of 1.22971 on 1 procs for 61 steps with 4000 atoms

99.6% CPU use with 1 MPI tasks x 1 OpenMP threads

Minimization stats:
  Stopping criterion = linesearch alpha is zero
  Energy initial, next-to-last, final = 
     -13547.1737681021  -13640.1424461705  -13640.1424461705
  Force two-norm initial, final = 28.673377 2.3679547e-05
  Force max component initial, final = 1.0161264 9.468588e-07
  Final line search alpha, max atom move = 4.1594039e-05 3.9383682e-11
  Iterations, force evaluations = 61 131

MPI task timing breakdown:
Section |  min time  |  avg time  |  max time  |%varavg| %total
---------------------------------------------------------------
Pair    | 1.219      | 1.219      | 1.219      |   0.0 | 99.13
Neigh   | 0          | 0          | 0          |   0.0 |  0.00
Comm    | 0.0038999  | 0.0038999  | 0.0038999  |   0.0 |  0.32
Output  | 0          | 0          | 0          |   0.0 |  0.00
Modify  | 0          | 0          | 0          |   0.0 |  0.00
Other   |            | 0.006781   |            |       |  0.55

Nlocal:           4000 ave        4000 max        4000 min
Histogram: 1 0 0 0 0 0 0 0 0 0
Nghost:           8195 ave        8195 max        8195 min
Histogram: 1 0 0 0 0 0 0 0 0 0
Neighs:         290137 ave      290137 max      290137 min
Histogram: 1 0 0 0 0 0 0 0 0 0

Total # of neighbors = 290137
Ave neighs/atom = 72.53425
Neighbor list builds = 0
Dangerous builds = 0
Total wall time: 0:15:30
