LAMMPS (29 Aug 2024)
OMP_NUM_THREADS environment is not set. Defaulting to 1 thread. (src/comm.cpp:98)
  using 1 OpenMP thread(s) per MPI task

#---------------------------- Atomic setup ------------------------------------#
units            metal
timestep         0.001
boundary         p p p
lattice          fcc 4.046
Lattice spacing in x,y,z = 4.046 4.046 4.046
region           sim_box block 0 10 0 10 0 10
create_box       1 sim_box
Created orthogonal box = (0 0 0) to (40.46 40.46 40.46)
  1 by 1 by 1 MPI processor grid
create_atoms     1 box
Created 4000 atoms
  using lattice units in orthogonal box = (0 0 0) to (40.46 40.46 40.46)
  create_atoms CPU = 0.001 seconds

pair_style       eam/fs                                             # interatomic potential (Lennard-Jones, EAM, etc.)
pair_coeff       * * ${potentials_dir}/al_eam.fs Al # interatomic potential parameters (ex. eam.alloy Cu_u3.eam)
pair_coeff       * * md/potentials/al_eam.fs Al 
pair_modify      tail yes
neigh_modify     delay 0                                                       # neighbor list update frequency (0 = every timestep)
mass             1 26.981539                                                 # atomic mass
variable         rnd equal round(random(0,999999,42))

#----------------------------- Equilibriation ---------------------------------#
velocity         all create 1082.28 ${rnd} dist gaussian              # initial velocities
velocity         all create 1082.28 420940 dist gaussian              
fix              f2 all nph iso 0 0 1.0        # barostat
variable         rnd equal round(random(0,999999,0))
fix              f3 all temp/csvr 1082.28 1082.28 0.1 ${rnd} # thermostat
fix              f3 all temp/csvr 1082.28 1082.28 0.1 53464 
run              10000                                           # equilibriation run
Neighbor list info ...
  update: every = 1 steps, delay = 0 steps, check = yes
  max neighbors/atom: 2000, page size: 100000
  master list distance cutoff = 8.5
  ghost atom cutoff = 8.5
  binsize = 4.25, bins = 10 10 10
  1 neighbor lists, perpetual/occasional/extra = 1 0 0
  (1) pair eam/fs, perpetual
      attributes: half, newton on
      pair build: half/bin/atomonly/newton
      stencil: half/bin/3d
      bin: standard
Per MPI rank memory allocation (min/avg/max) = 4.462 | 4.462 | 4.462 Mbytes
   Step          Temp          E_pair         E_mol          TotEng         Press          Volume    
         0   1082.28       -13642.623      0             -13083.18       8614.1432      66233.489    
     10000   1064.1763     -12909.796      0             -12359.711      619.85706      71915.456    
Loop time of 95.7971 on 1 procs for 10000 steps with 4000 atoms

Performance: 9.019 ns/day, 2.661 hours/ns, 104.387 timesteps/s, 417.549 katom-step/s
99.5% CPU use with 1 MPI tasks x 1 OpenMP threads

MPI task timing breakdown:
Section |  min time  |  avg time  |  max time  |%varavg| %total
---------------------------------------------------------------
Pair    | 92.295     | 92.295     | 92.295     |   0.0 | 96.34
Neigh   | 1.9625     | 1.9625     | 1.9625     |   0.0 |  2.05
Comm    | 0.30244    | 0.30244    | 0.30244    |   0.0 |  0.32
Output  | 6.0162e-05 | 6.0162e-05 | 6.0162e-05 |   0.0 |  0.00
Modify  | 1.1059     | 1.1059     | 1.1059     |   0.0 |  1.15
Other   |            | 0.1316     |            |       |  0.14

Nlocal:           4000 ave        4000 max        4000 min
Histogram: 1 0 0 0 0 0 0 0 0 0
Nghost:           7511 ave        7511 max        7511 min
Histogram: 1 0 0 0 0 0 0 0 0 0
Neighs:         286910 ave      286910 max      286910 min
Histogram: 1 0 0 0 0 0 0 0 0 0

Total # of neighbors = 286910
Ave neighs/atom = 71.7275
Neighbor list builds = 238
Dangerous builds = 0

#----------------------------- Run simulation ---------------------------------#
dump             d1 all custom 10000 md/data/al_fcc/dump_1.16.gz id type x y z # snapshots
run              90000
Per MPI rank memory allocation (min/avg/max) = 4.843 | 4.843 | 4.843 Mbytes
   Step          Temp          E_pair         E_mol          TotEng         Press          Volume    
     10000   1064.1763     -12909.796      0             -12359.711      619.85706      71915.456    
    100000   1064.3617     -12866.784      0             -12316.603     -913.58969      72448.63     
Loop time of 861.436 on 1 procs for 90000 steps with 4000 atoms

Performance: 9.027 ns/day, 2.659 hours/ns, 104.477 timesteps/s, 417.907 katom-step/s
99.5% CPU use with 1 MPI tasks x 1 OpenMP threads

MPI task timing breakdown:
Section |  min time  |  avg time  |  max time  |%varavg| %total
---------------------------------------------------------------
Pair    | 829.51     | 829.51     | 829.51     |   0.0 | 96.29
Neigh   | 17.869     | 17.869     | 17.869     |   0.0 |  2.07
Comm    | 2.6764     | 2.6764     | 2.6764     |   0.0 |  0.31
Output  | 0.14355    | 0.14355    | 0.14355    |   0.0 |  0.02
Modify  | 10.019     | 10.019     | 10.019     |   0.0 |  1.16
Other   |            | 1.221      |            |       |  0.14

Nlocal:           4000 ave        4000 max        4000 min
Histogram: 1 0 0 0 0 0 0 0 0 0
Nghost:           7529 ave        7529 max        7529 min
Histogram: 1 0 0 0 0 0 0 0 0 0
Neighs:         285081 ave      285081 max      285081 min
Histogram: 1 0 0 0 0 0 0 0 0 0

Total # of neighbors = 285081
Ave neighs/atom = 71.27025
Neighbor list builds = 2160
Dangerous builds = 0
undump           d1
min_modify       line forcezero
minimize         0 0 100000 100000                                                                               # minimize energy
Per MPI rank memory allocation (min/avg/max) = 5.968 | 5.968 | 5.968 Mbytes
   Step          Temp          E_pair         E_mol          TotEng         Press          Volume    
    100000   1064.3617     -12866.784      0             -12316.603     -913.58969      72448.63     
    100125   1064.3617     -13515.917      0             -12965.736     -51975.264      72448.63     
Loop time of 1.70525 on 1 procs for 125 steps with 4000 atoms

99.5% CPU use with 1 MPI tasks x 1 OpenMP threads

Minimization stats:
  Stopping criterion = linesearch alpha is zero
  Energy initial, next-to-last, final = 
     -12866.7838847698  -13515.9165196419  -13515.9165196419
  Force two-norm initial, final = 61.36994 0.00020825593
  Force max component initial, final = 2.6610058 4.808486e-05
  Final line search alpha, max atom move = 0.2820698 1.3563287e-05
  Iterations, force evaluations = 125 218

MPI task timing breakdown:
Section |  min time  |  avg time  |  max time  |%varavg| %total
---------------------------------------------------------------
Pair    | 1.6703     | 1.6703     | 1.6703     |   0.0 | 97.95
Neigh   | 0.015973   | 0.015973   | 0.015973   |   0.0 |  0.94
Comm    | 0.0065618  | 0.0065618  | 0.0065618  |   0.0 |  0.38
Output  | 0          | 0          | 0          |   0.0 |  0.00
Modify  | 0          | 0          | 0          |   0.0 |  0.00
Other   |            | 0.01245    |            |       |  0.73

Nlocal:           4000 ave        4000 max        4000 min
Histogram: 1 0 0 0 0 0 0 0 0 0
Nghost:           8178 ave        8178 max        8178 min
Histogram: 1 0 0 0 0 0 0 0 0 0
Neighs:         279886 ave      279886 max      279886 min
Histogram: 1 0 0 0 0 0 0 0 0 0

Total # of neighbors = 279886
Ave neighs/atom = 69.9715
Neighbor list builds = 2
Dangerous builds = 0
write_dump       all custom md/data/al_fcc/dump_1.16_relaxed.gz id type x y z
#------------------------------------------------------------------------------#
Total wall time: 0:15:59
