LAMMPS (29 Aug 2024)
OMP_NUM_THREADS environment is not set. Defaulting to 1 thread. (src/comm.cpp:98)
  using 1 OpenMP thread(s) per MPI task

#---------------------------- Atomic setup ------------------------------------#
units            metal
timestep         0.001
boundary         p p p
lattice          fcc 4.046
Lattice spacing in x,y,z = 4.046 4.046 4.046
region           sim_box block 0 10 0 10 0 10
create_box       1 sim_box
Created orthogonal box = (0 0 0) to (40.46 40.46 40.46)
  1 by 1 by 1 MPI processor grid
create_atoms     1 box
Created 4000 atoms
  using lattice units in orthogonal box = (0 0 0) to (40.46 40.46 40.46)
  create_atoms CPU = 0.001 seconds

pair_style       eam/fs                                             # interatomic potential (Lennard-Jones, EAM, etc.)
pair_coeff       * * ${potentials_dir}/al_eam.fs Al # interatomic potential parameters (ex. eam.alloy Cu_u3.eam)
pair_coeff       * * md/potentials/al_eam.fs Al 
pair_modify      tail yes
neigh_modify     delay 0                                                       # neighbor list update frequency (0 = every timestep)
mass             1 26.981539                                                 # atomic mass
variable         rnd equal round(random(0,999999,42))

#----------------------------- Equilibriation ---------------------------------#
velocity         all create 709.08 ${rnd} dist gaussian              # initial velocities
velocity         all create 709.08 420940 dist gaussian              
fix              f2 all nph iso 0 0 1.0        # barostat
variable         rnd equal round(random(0,999999,0))
fix              f3 all temp/csvr 709.08 709.08 0.1 ${rnd} # thermostat
fix              f3 all temp/csvr 709.08 709.08 0.1 53464 
run              10000                                           # equilibriation run
Neighbor list info ...
  update: every = 1 steps, delay = 0 steps, check = yes
  max neighbors/atom: 2000, page size: 100000
  master list distance cutoff = 8.5
  ghost atom cutoff = 8.5
  binsize = 4.25, bins = 10 10 10
  1 neighbor lists, perpetual/occasional/extra = 1 0 0
  (1) pair eam/fs, perpetual
      attributes: half, newton on
      pair build: half/bin/atomonly/newton
      stencil: half/bin/3d
      bin: standard
Per MPI rank memory allocation (min/avg/max) = 4.462 | 4.462 | 4.462 Mbytes
   Step          Temp          E_pair         E_mol          TotEng         Press          Volume    
         0   709.08        -13642.623      0             -13276.092      5503.1494      66233.489    
     10000   695.74658     -13236.247      0             -12876.608      1303.2604      69344.776    
Loop time of 97.1881 on 1 procs for 10000 steps with 4000 atoms

Performance: 8.890 ns/day, 2.700 hours/ns, 102.893 timesteps/s, 411.573 katom-step/s
99.5% CPU use with 1 MPI tasks x 1 OpenMP threads

MPI task timing breakdown:
Section |  min time  |  avg time  |  max time  |%varavg| %total
---------------------------------------------------------------
Pair    | 94.198     | 94.198     | 94.198     |   0.0 | 96.92
Neigh   | 1.4406     | 1.4406     | 1.4406     |   0.0 |  1.48
Comm    | 0.31068    | 0.31068    | 0.31068    |   0.0 |  0.32
Output  | 5.323e-05  | 5.323e-05  | 5.323e-05  |   0.0 |  0.00
Modify  | 1.1069     | 1.1069     | 1.1069     |   0.0 |  1.14
Other   |            | 0.1321     |            |       |  0.14

Nlocal:           4000 ave        4000 max        4000 min
Histogram: 1 0 0 0 0 0 0 0 0 0
Nghost:           8093 ave        8093 max        8093 min
Histogram: 1 0 0 0 0 0 0 0 0 0
Neighs:         290830 ave      290830 max      290830 min
Histogram: 1 0 0 0 0 0 0 0 0 0

Total # of neighbors = 290830
Ave neighs/atom = 72.7075
Neighbor list builds = 176
Dangerous builds = 0

#----------------------------- Run simulation ---------------------------------#
dump             d1 all custom 10000 md/data/al_fcc/dump_0.76.gz id type x y z # snapshots
run              90000
Per MPI rank memory allocation (min/avg/max) = 4.843 | 4.843 | 4.843 Mbytes
   Step          Temp          E_pair         E_mol          TotEng         Press          Volume    
     10000   695.74658     -13236.247      0             -12876.608      1303.2604      69344.776    
    100000   714.22312     -13231.22       0             -12862.03      -1462.3959      69632.544    
Loop time of 877.995 on 1 procs for 90000 steps with 4000 atoms

Performance: 8.857 ns/day, 2.710 hours/ns, 102.506 timesteps/s, 410.025 katom-step/s
99.5% CPU use with 1 MPI tasks x 1 OpenMP threads

MPI task timing breakdown:
Section |  min time  |  avg time  |  max time  |%varavg| %total
---------------------------------------------------------------
Pair    | 850.6      | 850.6      | 850.6      |   0.0 | 96.88
Neigh   | 13.212     | 13.212     | 13.212     |   0.0 |  1.50
Comm    | 2.809      | 2.809      | 2.809      |   0.0 |  0.32
Output  | 0.14349    | 0.14349    | 0.14349    |   0.0 |  0.02
Modify  | 10.071     | 10.071     | 10.071     |   0.0 |  1.15
Other   |            | 1.158      |            |       |  0.13

Nlocal:           4000 ave        4000 max        4000 min
Histogram: 1 0 0 0 0 0 0 0 0 0
Nghost:           8078 ave        8078 max        8078 min
Histogram: 1 0 0 0 0 0 0 0 0 0
Neighs:         290053 ave      290053 max      290053 min
Histogram: 1 0 0 0 0 0 0 0 0 0

Total # of neighbors = 290053
Ave neighs/atom = 72.51325
Neighbor list builds = 1613
Dangerous builds = 0
undump           d1
min_modify       line forcezero
minimize         0 0 100000 100000                                                                               # minimize energy
Per MPI rank memory allocation (min/avg/max) = 5.968 | 5.968 | 5.968 Mbytes
   Step          Temp          E_pair         E_mol          TotEng         Press          Volume    
    100000   714.22312     -13231.22       0             -12862.03      -1462.3959      69632.544    
    100078   714.22312     -13603.926      0             -13234.736     -29063.294      69632.544    
Loop time of 1.26982 on 1 procs for 78 steps with 4000 atoms

99.6% CPU use with 1 MPI tasks x 1 OpenMP threads

Minimization stats:
  Stopping criterion = linesearch alpha is zero
  Energy initial, next-to-last, final = 
     -13231.2200681939  -13603.9264305223  -13603.9264305223
  Force two-norm initial, final = 52.266844 3.3325427e-05
  Force max component initial, final = 1.9690114 1.2815336e-06
  Final line search alpha, max atom move = 0.00047957571 6.145924e-10
  Iterations, force evaluations = 78 154

MPI task timing breakdown:
Section |  min time  |  avg time  |  max time  |%varavg| %total
---------------------------------------------------------------
Pair    | 1.2573     | 1.2573     | 1.2573     |   0.0 | 99.01
Neigh   | 0          | 0          | 0          |   0.0 |  0.00
Comm    | 0.0044586  | 0.0044586  | 0.0044586  |   0.0 |  0.35
Output  | 0          | 0          | 0          |   0.0 |  0.00
Modify  | 0          | 0          | 0          |   0.0 |  0.00
Other   |            | 0.008076   |            |       |  0.64

Nlocal:           4000 ave        4000 max        4000 min
Histogram: 1 0 0 0 0 0 0 0 0 0
Nghost:           8063 ave        8063 max        8063 min
Histogram: 1 0 0 0 0 0 0 0 0 0
Neighs:         290013 ave      290013 max      290013 min
Histogram: 1 0 0 0 0 0 0 0 0 0

Total # of neighbors = 290013
Ave neighs/atom = 72.50325
Neighbor list builds = 0
Dangerous builds = 0
write_dump       all custom md/data/al_fcc/dump_0.76_relaxed.gz id type x y z
#------------------------------------------------------------------------------#
Total wall time: 0:16:16
