LAMMPS (29 Aug 2024)
OMP_NUM_THREADS environment is not set. Defaulting to 1 thread. (src/comm.cpp:98)
  using 1 OpenMP thread(s) per MPI task
Lattice spacing in x,y,z = 4.046 4.046 4.046
Created orthogonal box = (0 0 0) to (40.46 40.46 40.46)
  1 by 1 by 1 MPI processor grid
Created 4000 atoms
  using lattice units in orthogonal box = (0 0 0) to (40.46 40.46 40.46)
  create_atoms CPU = 0.001 seconds
Neighbor list info ...
  update: every = 1 steps, delay = 0 steps, check = yes
  max neighbors/atom: 2000, page size: 100000
  master list distance cutoff = 8.5
  ghost atom cutoff = 8.5
  binsize = 4.25, bins = 10 10 10
  1 neighbor lists, perpetual/occasional/extra = 1 0 0
  (1) pair eam/fs, perpetual
      attributes: half, newton on
      pair build: half/bin/atomonly/newton
      stencil: half/bin/3d
      bin: standard
Setting up Verlet run ...
  Unit style    : metal
  Current step  : 0
  Time step     : 0.001
Per MPI rank memory allocation (min/avg/max) = 4.462 | 4.462 | 4.462 Mbytes
   Step          Temp          E_pair         E_mol          TotEng         Press          Volume    
         0   1231.56       -13642.623      0             -13006.016      9858.5407      66233.489    
     10000   1221.0758     -12385.718      0             -11754.53       1996.6635      76830.708    
Loop time of 91.2743 on 1 procs for 10000 steps with 4000 atoms

Performance: 9.466 ns/day, 2.535 hours/ns, 109.560 timesteps/s, 438.240 katom-step/s
99.5% CPU use with 1 MPI tasks x 1 OpenMP threads

MPI task timing breakdown:
Section |  min time  |  avg time  |  max time  |%varavg| %total
---------------------------------------------------------------
Pair    | 87.837     | 87.837     | 87.837     |   0.0 | 96.23
Neigh   | 1.9181     | 1.9181     | 1.9181     |   0.0 |  2.10
Comm    | 0.28529    | 0.28529    | 0.28529    |   0.0 |  0.31
Output  | 5.6416e-05 | 5.6416e-05 | 5.6416e-05 |   0.0 |  0.00
Modify  | 1.1098     | 1.1098     | 1.1098     |   0.0 |  1.22
Other   |            | 0.124      |            |       |  0.14

Nlocal:           4000 ave        4000 max        4000 min
Histogram: 1 0 0 0 0 0 0 0 0 0
Nghost:           6921 ave        6921 max        6921 min
Histogram: 1 0 0 0 0 0 0 0 0 0
Neighs:         266904 ave      266904 max      266904 min
Histogram: 1 0 0 0 0 0 0 0 0 0

Total # of neighbors = 266904
Ave neighs/atom = 66.726
Neighbor list builds = 255
Dangerous builds = 0
Setting up Verlet run ...
  Unit style    : metal
  Current step  : 10000
  Time step     : 0.001
Per MPI rank memory allocation (min/avg/max) = 4.846 | 4.846 | 4.846 Mbytes
   Step          Temp          E_pair         E_mol          TotEng         Press          Volume    
     10000   1221.0758     -12385.718      0             -11754.53       1996.6635      76830.708    
    100000   1230.5255     -12366.653      0             -11730.58      -993.35041      77432.419    
Loop time of 815.331 on 1 procs for 90000 steps with 4000 atoms

Performance: 9.537 ns/day, 2.516 hours/ns, 110.385 timesteps/s, 441.539 katom-step/s
99.5% CPU use with 1 MPI tasks x 1 OpenMP threads

MPI task timing breakdown:
Section |  min time  |  avg time  |  max time  |%varavg| %total
---------------------------------------------------------------
Pair    | 784.33     | 784.33     | 784.33     |   0.0 | 96.20
Neigh   | 17.135     | 17.135     | 17.135     |   0.0 |  2.10
Comm    | 2.5602     | 2.5602     | 2.5602     |   0.0 |  0.31
Output  | 0.15101    | 0.15101    | 0.15101    |   0.0 |  0.02
Modify  | 9.9767     | 9.9767     | 9.9767     |   0.0 |  1.22
Other   |            | 1.174      |            |       |  0.14

Nlocal:           4000 ave        4000 max        4000 min
Histogram: 1 0 0 0 0 0 0 0 0 0
Nghost:           6940 ave        6940 max        6940 min
Histogram: 1 0 0 0 0 0 0 0 0 0
Neighs:         265121 ave      265121 max      265121 min
Histogram: 1 0 0 0 0 0 0 0 0 0

Total # of neighbors = 265121
Ave neighs/atom = 66.28025
Neighbor list builds = 2340
Dangerous builds = 0
Setting up cg style minimization ...
  Unit style    : metal
  Current step  : 100000
Per MPI rank memory allocation (min/avg/max) = 5.978 | 5.978 | 5.978 Mbytes
   Step          Temp          E_pair         E_mol          TotEng         Press          Volume    
    100000   1230.5255     -12366.653      0             -11730.58      -993.35041      77432.419    
    103114   1230.5255     -13179.278      0             -12543.206     -14950.934      77432.419    
Loop time of 60.6039 on 1 procs for 3114 steps with 4000 atoms

99.5% CPU use with 1 MPI tasks x 1 OpenMP threads

Minimization stats:
  Stopping criterion = linesearch alpha is zero
  Energy initial, next-to-last, final = 
      -12366.652761233  -13179.2783819817  -13179.2783819817
  Force two-norm initial, final = 62.226628 5.3245857e-05
  Force max component initial, final = 3.1945661 1.120513e-05
  Final line search alpha, max atom move = 0 0
  Iterations, force evaluations = 3114 5226

MPI task timing breakdown:
Section |  min time  |  avg time  |  max time  |%varavg| %total
---------------------------------------------------------------
Pair    | 59.601     | 59.601     | 59.601     |   0.0 | 98.35
Neigh   | 0.56066    | 0.56066    | 0.56066    |   0.0 |  0.93
Comm    | 0.13902    | 0.13902    | 0.13902    |   0.0 |  0.23
Output  | 0          | 0          | 0          |   0.0 |  0.00
Modify  | 0          | 0          | 0          |   0.0 |  0.00
Other   |            | 0.3027     |            |       |  0.50

Nlocal:           4000 ave        4000 max        4000 min
Histogram: 1 0 0 0 0 0 0 0 0 0
Nghost:           6662 ave        6662 max        6662 min
Histogram: 1 0 0 0 0 0 0 0 0 0
Neighs:         268919 ave      268919 max      268919 min
Histogram: 1 0 0 0 0 0 0 0 0 0

Total # of neighbors = 268919
Ave neighs/atom = 67.22975
Neighbor list builds = 79
Dangerous builds = 0
Total wall time: 0:16:07
