LAMMPS (29 Aug 2024)
OMP_NUM_THREADS environment is not set. Defaulting to 1 thread. (src/comm.cpp:98)
  using 1 OpenMP thread(s) per MPI task
Lattice spacing in x,y,z = 4.046 4.046 4.046
Created orthogonal box = (0 0 0) to (40.46 40.46 40.46)
  1 by 1 by 1 MPI processor grid
Created 4000 atoms
  using lattice units in orthogonal box = (0 0 0) to (40.46 40.46 40.46)
  create_atoms CPU = 0.001 seconds
Neighbor list info ...
  update: every = 1 steps, delay = 0 steps, check = yes
  max neighbors/atom: 2000, page size: 100000
  master list distance cutoff = 8.5
  ghost atom cutoff = 8.5
  binsize = 4.25, bins = 10 10 10
  1 neighbor lists, perpetual/occasional/extra = 1 0 0
  (1) pair eam/fs, perpetual
      attributes: half, newton on
      pair build: half/bin/atomonly/newton
      stencil: half/bin/3d
      bin: standard
Setting up Verlet run ...
  Unit style    : metal
  Current step  : 0
  Time step     : 0.001
Per MPI rank memory allocation (min/avg/max) = 4.462 | 4.462 | 4.462 Mbytes
   Step          Temp          E_pair         E_mol          TotEng         Press          Volume    
         0   447.84        -13642.623      0             -13411.13       3325.4538      66233.489    
     10000   441.36212     -13407.366      0             -13179.22      -2010.838       68384.996    
Loop time of 95.7829 on 1 procs for 10000 steps with 4000 atoms

Performance: 9.020 ns/day, 2.661 hours/ns, 104.403 timesteps/s, 417.611 katom-step/s
99.6% CPU use with 1 MPI tasks x 1 OpenMP threads

MPI task timing breakdown:
Section |  min time  |  avg time  |  max time  |%varavg| %total
---------------------------------------------------------------
Pair    | 94.076     | 94.076     | 94.076     |   0.0 | 98.22
Neigh   | 0.17279    | 0.17279    | 0.17279    |   0.0 |  0.18
Comm    | 0.29764    | 0.29764    | 0.29764    |   0.0 |  0.31
Output  | 5.874e-05  | 5.874e-05  | 5.874e-05  |   0.0 |  0.00
Modify  | 1.1083     | 1.1083     | 1.1083     |   0.0 |  1.16
Other   |            | 0.1282     |            |       |  0.13

Nlocal:           4000 ave        4000 max        4000 min
Histogram: 1 0 0 0 0 0 0 0 0 0
Nghost:           8183 ave        8183 max        8183 min
Histogram: 1 0 0 0 0 0 0 0 0 0
Neighs:         290635 ave      290635 max      290635 min
Histogram: 1 0 0 0 0 0 0 0 0 0

Total # of neighbors = 290635
Ave neighs/atom = 72.65875
Neighbor list builds = 20
Dangerous builds = 0
Setting up Verlet run ...
  Unit style    : metal
  Current step  : 10000
  Time step     : 0.001
Per MPI rank memory allocation (min/avg/max) = 4.462 | 4.462 | 4.462 Mbytes
   Step          Temp          E_pair         E_mol          TotEng         Press          Volume    
     10000   441.36212     -13407.366      0             -13179.22      -2010.838       68384.996    
    100000   442.44309     -13399.91       0             -13171.206      46.446762      68254.809    
Loop time of 866.702 on 1 procs for 90000 steps with 4000 atoms

Performance: 8.972 ns/day, 2.675 hours/ns, 103.842 timesteps/s, 415.368 katom-step/s
99.6% CPU use with 1 MPI tasks x 1 OpenMP threads

MPI task timing breakdown:
Section |  min time  |  avg time  |  max time  |%varavg| %total
---------------------------------------------------------------
Pair    | 851.68     | 851.68     | 851.68     |   0.0 | 98.27
Neigh   | 1.1392     | 1.1392     | 1.1392     |   0.0 |  0.13
Comm    | 2.6366     | 2.6366     | 2.6366     |   0.0 |  0.30
Output  | 0.14389    | 0.14389    | 0.14389    |   0.0 |  0.02
Modify  | 9.9893     | 9.9893     | 9.9893     |   0.0 |  1.15
Other   |            | 1.118      |            |       |  0.13

Nlocal:           4000 ave        4000 max        4000 min
Histogram: 1 0 0 0 0 0 0 0 0 0
Nghost:           8178 ave        8178 max        8178 min
Histogram: 1 0 0 0 0 0 0 0 0 0
Neighs:         291315 ave      291315 max      291315 min
Histogram: 1 0 0 0 0 0 0 0 0 0

Total # of neighbors = 291315
Ave neighs/atom = 72.82875
Neighbor list builds = 131
Dangerous builds = 0
Setting up cg style minimization ...
  Unit style    : metal
  Current step  : 100000
Per MPI rank memory allocation (min/avg/max) = 5.587 | 5.587 | 5.587 Mbytes
   Step          Temp          E_pair         E_mol          TotEng         Press          Volume    
    100000   442.44309     -13399.91       0             -13171.206      46.446762      68254.809    
    100064   442.44309     -13628.235      0             -13399.531     -18142.733      68254.809    
Loop time of 1.23107 on 1 procs for 64 steps with 4000 atoms

99.6% CPU use with 1 MPI tasks x 1 OpenMP threads

Minimization stats:
  Stopping criterion = linesearch alpha is zero
  Energy initial, next-to-last, final = 
     -13399.9098921777  -13628.2348520157  -13628.2348520157
  Force two-norm initial, final = 43.566385 3.4116022e-05
  Force max component initial, final = 1.6025209 1.1399752e-06
  Final line search alpha, max atom move = 0 0
  Iterations, force evaluations = 64 128

MPI task timing breakdown:
Section |  min time  |  avg time  |  max time  |%varavg| %total
---------------------------------------------------------------
Pair    | 1.22       | 1.22       | 1.22       |   0.0 | 99.10
Neigh   | 0          | 0          | 0          |   0.0 |  0.00
Comm    | 0.0039237  | 0.0039237  | 0.0039237  |   0.0 |  0.32
Output  | 0          | 0          | 0          |   0.0 |  0.00
Modify  | 0          | 0          | 0          |   0.0 |  0.00
Other   |            | 0.007136   |            |       |  0.58

Nlocal:           4000 ave        4000 max        4000 min
Histogram: 1 0 0 0 0 0 0 0 0 0
Nghost:           8189 ave        8189 max        8189 min
Histogram: 1 0 0 0 0 0 0 0 0 0
Neighs:         291253 ave      291253 max      291253 min
Histogram: 1 0 0 0 0 0 0 0 0 0

Total # of neighbors = 291253
Ave neighs/atom = 72.81325
Neighbor list builds = 0
Dangerous builds = 0
Total wall time: 0:16:03
