LAMMPS (29 Aug 2024)
OMP_NUM_THREADS environment is not set. Defaulting to 1 thread. (src/comm.cpp:98)
  using 1 OpenMP thread(s) per MPI task
Lattice spacing in x,y,z = 4.046 4.046 4.046
Created orthogonal box = (0 0 0) to (40.46 40.46 40.46)
  1 by 1 by 1 MPI processor grid
Created 4000 atoms
  using lattice units in orthogonal box = (0 0 0) to (40.46 40.46 40.46)
  create_atoms CPU = 0.001 seconds
Neighbor list info ...
  update: every = 1 steps, delay = 0 steps, check = yes
  max neighbors/atom: 2000, page size: 100000
  master list distance cutoff = 8.5
  ghost atom cutoff = 8.5
  binsize = 4.25, bins = 10 10 10
  1 neighbor lists, perpetual/occasional/extra = 1 0 0
  (1) pair eam/fs, perpetual
      attributes: half, newton on
      pair build: half/bin/atomonly/newton
      stencil: half/bin/3d
      bin: standard
Setting up Verlet run ...
  Unit style    : metal
  Current step  : 0
  Time step     : 0.001
Per MPI rank memory allocation (min/avg/max) = 4.462 | 4.462 | 4.462 Mbytes
   Step          Temp          E_pair         E_mol          TotEng         Press          Volume    
         0   1156.92       -13642.623      0             -13044.598      9236.3419      66233.489    
     10000   1139.7382     -12437.97       0             -11848.826      2196.693       76161.705    
Loop time of 93.3681 on 1 procs for 10000 steps with 4000 atoms

Performance: 9.254 ns/day, 2.594 hours/ns, 107.103 timesteps/s, 428.412 katom-step/s
99.4% CPU use with 1 MPI tasks x 1 OpenMP threads

MPI task timing breakdown:
Section |  min time  |  avg time  |  max time  |%varavg| %total
---------------------------------------------------------------
Pair    | 89.819     | 89.819     | 89.819     |   0.0 | 96.20
Neigh   | 2.02       | 2.02       | 2.02       |   0.0 |  2.16
Comm    | 0.29172    | 0.29172    | 0.29172    |   0.0 |  0.31
Output  | 6.0885e-05 | 6.0885e-05 | 6.0885e-05 |   0.0 |  0.00
Modify  | 1.1051     | 1.1051     | 1.1051     |   0.0 |  1.18
Other   |            | 0.1318     |            |       |  0.14

Nlocal:           4000 ave        4000 max        4000 min
Histogram: 1 0 0 0 0 0 0 0 0 0
Nghost:           6987 ave        6987 max        6987 min
Histogram: 1 0 0 0 0 0 0 0 0 0
Neighs:         269403 ave      269403 max      269403 min
Histogram: 1 0 0 0 0 0 0 0 0 0

Total # of neighbors = 269403
Ave neighs/atom = 67.35075
Neighbor list builds = 246
Dangerous builds = 0
Setting up Verlet run ...
  Unit style    : metal
  Current step  : 10000
  Time step     : 0.001
Per MPI rank memory allocation (min/avg/max) = 4.846 | 4.846 | 4.846 Mbytes
   Step          Temp          E_pair         E_mol          TotEng         Press          Volume    
     10000   1139.7382     -12437.97       0             -11848.826      2196.693       76161.705    
    100000   1144.3095     -12417.39       0             -11825.883      621.59895      76685.919    
Loop time of 825.3 on 1 procs for 90000 steps with 4000 atoms

Performance: 9.422 ns/day, 2.547 hours/ns, 109.051 timesteps/s, 436.205 katom-step/s
99.3% CPU use with 1 MPI tasks x 1 OpenMP threads

MPI task timing breakdown:
Section |  min time  |  avg time  |  max time  |%varavg| %total
---------------------------------------------------------------
Pair    | 793.29     | 793.29     | 793.29     |   0.0 | 96.12
Neigh   | 18.221     | 18.221     | 18.221     |   0.0 |  2.21
Comm    | 2.5121     | 2.5121     | 2.5121     |   0.0 |  0.30
Output  | 0.15372    | 0.15372    | 0.15372    |   0.0 |  0.02
Modify  | 10.014     | 10.014     | 10.014     |   0.0 |  1.21
Other   |            | 1.112      |            |       |  0.13

Nlocal:           4000 ave        4000 max        4000 min
Histogram: 1 0 0 0 0 0 0 0 0 0
Nghost:           6964 ave        6964 max        6964 min
Histogram: 1 0 0 0 0 0 0 0 0 0
Neighs:         267844 ave      267844 max      267844 min
Histogram: 1 0 0 0 0 0 0 0 0 0

Total # of neighbors = 267844
Ave neighs/atom = 66.961
Neighbor list builds = 2267
Dangerous builds = 0
Setting up cg style minimization ...
  Unit style    : metal
  Current step  : 100000
Per MPI rank memory allocation (min/avg/max) = 5.978 | 5.978 | 5.978 Mbytes
   Step          Temp          E_pair         E_mol          TotEng         Press          Volume    
    100000   1144.3095     -12417.39       0             -11825.883      621.59895      76685.919    
    103501   1144.3095     -13211.177      0             -12619.671     -11995.885      76685.919    
Loop time of 57.3004 on 1 procs for 3501 steps with 4000 atoms

99.2% CPU use with 1 MPI tasks x 1 OpenMP threads

Minimization stats:
  Stopping criterion = linesearch alpha is zero
  Energy initial, next-to-last, final = 
     -12417.3899269943  -13211.1773616117  -13211.1773616117
  Force two-norm initial, final = 62.082665 3.9773635e-05
  Force max component initial, final = 3.3988434 1.035523e-05
  Final line search alpha, max atom move = 0.0003462376 3.5853701e-09
  Iterations, force evaluations = 3501 5965

MPI task timing breakdown:
Section |  min time  |  avg time  |  max time  |%varavg| %total
---------------------------------------------------------------
Pair    | 56.079     | 56.079     | 56.079     |   0.0 | 97.87
Neigh   | 0.71113    | 0.71113    | 0.71113    |   0.0 |  1.24
Comm    | 0.15297    | 0.15297    | 0.15297    |   0.0 |  0.27
Output  | 0          | 0          | 0          |   0.0 |  0.00
Modify  | 0          | 0          | 0          |   0.0 |  0.00
Other   |            | 0.357      |            |       |  0.62

Nlocal:           4000 ave        4000 max        4000 min
Histogram: 1 0 0 0 0 0 0 0 0 0
Nghost:           6319 ave        6319 max        6319 min
Histogram: 1 0 0 0 0 0 0 0 0 0
Neighs:         274387 ave      274387 max      274387 min
Histogram: 1 0 0 0 0 0 0 0 0 0

Total # of neighbors = 274387
Ave neighs/atom = 68.59675
Neighbor list builds = 89
Dangerous builds = 0
Total wall time: 0:16:16
