LAMMPS (29 Aug 2024)
OMP_NUM_THREADS environment is not set. Defaulting to 1 thread. (src/comm.cpp:98)
  using 1 OpenMP thread(s) per MPI task

#---------------------------- Atomic setup ------------------------------------#
units            metal
timestep         0.001
boundary         p p p
lattice          fcc 4.046
Lattice spacing in x,y,z = 4.046 4.046 4.046
region           sim_box block 0 10 0 10 0 10
create_box       1 sim_box
Created orthogonal box = (0 0 0) to (40.46 40.46 40.46)
  1 by 1 by 1 MPI processor grid
create_atoms     1 box
Created 4000 atoms
  using lattice units in orthogonal box = (0 0 0) to (40.46 40.46 40.46)
  create_atoms CPU = 0.001 seconds

pair_style       eam/fs                                             # interatomic potential (Lennard-Jones, EAM, etc.)
pair_coeff       * * ${potentials_dir}/al_eam.fs Al # interatomic potential parameters (ex. eam.alloy Cu_u3.eam)
pair_coeff       * * md/potentials/al_eam.fs Al 
pair_modify      tail yes
neigh_modify     delay 0                                                       # neighbor list update frequency (0 = every timestep)
mass             1 26.981539                                                 # atomic mass
variable         rnd equal round(random(0,999999,42))

#----------------------------- Equilibriation ---------------------------------#
velocity         all create 1119.6 ${rnd} dist gaussian              # initial velocities
velocity         all create 1119.6 420940 dist gaussian              
fix              f2 all nph iso 0 0 1.0        # barostat
variable         rnd equal round(random(0,999999,0))
fix              f3 all temp/csvr 1119.6 1119.6 0.1 ${rnd} # thermostat
fix              f3 all temp/csvr 1119.6 1119.6 0.1 53464 
run              10000                                           # equilibriation run
Neighbor list info ...
  update: every = 1 steps, delay = 0 steps, check = yes
  max neighbors/atom: 2000, page size: 100000
  master list distance cutoff = 8.5
  ghost atom cutoff = 8.5
  binsize = 4.25, bins = 10 10 10
  1 neighbor lists, perpetual/occasional/extra = 1 0 0
  (1) pair eam/fs, perpetual
      attributes: half, newton on
      pair build: half/bin/atomonly/newton
      stencil: half/bin/3d
      bin: standard
Per MPI rank memory allocation (min/avg/max) = 4.462 | 4.462 | 4.462 Mbytes
   Step          Temp          E_pair         E_mol          TotEng         Press          Volume    
         0   1119.6        -13642.623      0             -13063.889      8925.2425      66233.489    
     10000   1107.9994     -12839.993      0             -12267.256      264.22177      72596.508    
Loop time of 95.0282 on 1 procs for 10000 steps with 4000 atoms

Performance: 9.092 ns/day, 2.640 hours/ns, 105.232 timesteps/s, 420.928 katom-step/s
99.6% CPU use with 1 MPI tasks x 1 OpenMP threads

MPI task timing breakdown:
Section |  min time  |  avg time  |  max time  |%varavg| %total
---------------------------------------------------------------
Pair    | 91.503     | 91.503     | 91.503     |   0.0 | 96.29
Neigh   | 1.9939     | 1.9939     | 1.9939     |   0.0 |  2.10
Comm    | 0.29834    | 0.29834    | 0.29834    |   0.0 |  0.31
Output  | 0.00018991 | 0.00018991 | 0.00018991 |   0.0 |  0.00
Modify  | 1.1013     | 1.1013     | 1.1013     |   0.0 |  1.16
Other   |            | 0.1316     |            |       |  0.14

Nlocal:           4000 ave        4000 max        4000 min
Histogram: 1 0 0 0 0 0 0 0 0 0
Nghost:           7535 ave        7535 max        7535 min
Histogram: 1 0 0 0 0 0 0 0 0 0
Neighs:         284539 ave      284539 max      284539 min
Histogram: 1 0 0 0 0 0 0 0 0 0

Total # of neighbors = 284539
Ave neighs/atom = 71.13475
Neighbor list builds = 242
Dangerous builds = 0

#----------------------------- Run simulation ---------------------------------#
dump             d1 all custom 10000 md/data/al_fcc/dump_1.2.gz id type x y z # snapshots
run              90000
Per MPI rank memory allocation (min/avg/max) = 4.843 | 4.843 | 4.843 Mbytes
   Step          Temp          E_pair         E_mol          TotEng         Press          Volume    
     10000   1107.9994     -12839.993      0             -12267.256      264.22177      72596.508    
    100000   1100.5864     -12443.238      0             -11874.333     -1457.2718      76597.636    
Loop time of 828.265 on 1 procs for 90000 steps with 4000 atoms

Performance: 9.388 ns/day, 2.556 hours/ns, 108.661 timesteps/s, 434.643 katom-step/s
99.6% CPU use with 1 MPI tasks x 1 OpenMP threads

MPI task timing breakdown:
Section |  min time  |  avg time  |  max time  |%varavg| %total
---------------------------------------------------------------
Pair    | 796.11     | 796.11     | 796.11     |   0.0 | 96.12
Neigh   | 18.334     | 18.334     | 18.334     |   0.0 |  2.21
Comm    | 2.5649     | 2.5649     | 2.5649     |   0.0 |  0.31
Output  | 0.14953    | 0.14953    | 0.14953    |   0.0 |  0.02
Modify  | 9.9365     | 9.9365     | 9.9365     |   0.0 |  1.20
Other   |            | 1.17       |            |       |  0.14

Nlocal:           4000 ave        4000 max        4000 min
Histogram: 1 0 0 0 0 0 0 0 0 0
Nghost:           6950 ave        6950 max        6950 min
Histogram: 1 0 0 0 0 0 0 0 0 0
Neighs:         267972 ave      267972 max      267972 min
Histogram: 1 0 0 0 0 0 0 0 0 0

Total # of neighbors = 267972
Ave neighs/atom = 66.993
Neighbor list builds = 2217
Dangerous builds = 0
undump           d1
min_modify       line forcezero
minimize         0 0 100000 100000                                                                               # minimize energy
Per MPI rank memory allocation (min/avg/max) = 5.971 | 5.971 | 5.971 Mbytes
   Step          Temp          E_pair         E_mol          TotEng         Press          Volume    
    100000   1100.5864     -12443.238      0             -11874.333     -1457.2718      76597.636    
    103300   1100.5864     -13210.367      0             -12641.461     -10730.746      76597.636    
Loop time of 53.1995 on 1 procs for 3300 steps with 4000 atoms

99.6% CPU use with 1 MPI tasks x 1 OpenMP threads

Minimization stats:
  Stopping criterion = linesearch alpha is zero
  Energy initial, next-to-last, final = 
     -12443.2381128119  -13210.3665180852  -13210.3665180852
  Force two-norm initial, final = 59.386014 5.3043336e-05
  Force max component initial, final = 3.4469591 1.419498e-05
  Final line search alpha, max atom move = 3.3941621e-08 4.8180063e-13
  Iterations, force evaluations = 3300 5597

MPI task timing breakdown:
Section |  min time  |  avg time  |  max time  |%varavg| %total
---------------------------------------------------------------
Pair    | 52.082     | 52.082     | 52.082     |   0.0 | 97.90
Neigh   | 0.63684    | 0.63684    | 0.63684    |   0.0 |  1.20
Comm    | 0.15399    | 0.15399    | 0.15399    |   0.0 |  0.29
Output  | 0          | 0          | 0          |   0.0 |  0.00
Modify  | 0          | 0          | 0          |   0.0 |  0.00
Other   |            | 0.3271     |            |       |  0.61

Nlocal:           4000 ave        4000 max        4000 min
Histogram: 1 0 0 0 0 0 0 0 0 0
Nghost:           6991 ave        6991 max        6991 min
Histogram: 1 0 0 0 0 0 0 0 0 0
Neighs:         275104 ave      275104 max      275104 min
Histogram: 1 0 0 0 0 0 0 0 0 0

Total # of neighbors = 275104
Ave neighs/atom = 68.776
Neighbor list builds = 79
Dangerous builds = 0
write_dump       all custom md/data/al_fcc/dump_1.2_relaxed.gz id type x y z
#------------------------------------------------------------------------------#
Total wall time: 0:16:16
