LAMMPS (29 Aug 2024)
OMP_NUM_THREADS environment is not set. Defaulting to 1 thread. (src/comm.cpp:98)
  using 1 OpenMP thread(s) per MPI task

#---------------------------- Atomic setup ------------------------------------#
units            metal
timestep         0.001
boundary         p p p
lattice          fcc 4.046
Lattice spacing in x,y,z = 4.046 4.046 4.046
region           sim_box block 0 10 0 10 0 10
create_box       1 sim_box
Created orthogonal box = (0 0 0) to (40.46 40.46 40.46)
  1 by 1 by 1 MPI processor grid
create_atoms     1 box
Created 4000 atoms
  using lattice units in orthogonal box = (0 0 0) to (40.46 40.46 40.46)
  create_atoms CPU = 0.001 seconds

pair_style       eam/fs                                             # interatomic potential (Lennard-Jones, EAM, etc.)
pair_coeff       * * ${potentials_dir}/al_eam.fs Al # interatomic potential parameters (ex. eam.alloy Cu_u3.eam)
pair_coeff       * * md/potentials/al_eam.fs Al 
pair_modify      tail yes
neigh_modify     delay 0                                                       # neighbor list update frequency (0 = every timestep)
mass             1 26.981539                                                 # atomic mass
variable         rnd equal round(random(0,999999,42))

#----------------------------- Equilibriation ---------------------------------#
velocity         all create 37.32 ${rnd} dist gaussian              # initial velocities
velocity         all create 37.32 420940 dist gaussian              
fix              f2 all nph iso 0 0 1.0        # barostat
variable         rnd equal round(random(0,999999,0))
fix              f3 all temp/csvr 37.32 37.32 0.1 ${rnd} # thermostat
fix              f3 all temp/csvr 37.32 37.32 0.1 53464 
run              10000                                           # equilibriation run
Neighbor list info ...
  update: every = 1 steps, delay = 0 steps, check = yes
  max neighbors/atom: 2000, page size: 100000
  master list distance cutoff = 8.5
  ghost atom cutoff = 8.5
  binsize = 4.25, bins = 10 10 10
  1 neighbor lists, perpetual/occasional/extra = 1 0 0
  (1) pair eam/fs, perpetual
      attributes: half, newton on
      pair build: half/bin/atomonly/newton
      stencil: half/bin/3d
      bin: standard
Per MPI rank memory allocation (min/avg/max) = 4.462 | 4.462 | 4.462 Mbytes
   Step          Temp          E_pair         E_mol          TotEng         Press          Volume    
         0   37.32         -13642.623      0             -13623.332     -96.639375      66233.489    
     10000   36.695292     -13623.859      0             -13604.891      928.40212      66329.957    
Loop time of 81.8493 on 1 procs for 10000 steps with 4000 atoms

Performance: 10.556 ns/day, 2.274 hours/ns, 122.176 timesteps/s, 488.703 katom-step/s
99.5% CPU use with 1 MPI tasks x 1 OpenMP threads

MPI task timing breakdown:
Section |  min time  |  avg time  |  max time  |%varavg| %total
---------------------------------------------------------------
Pair    | 80.359     | 80.359     | 80.359     |   0.0 | 98.18
Neigh   | 0          | 0          | 0          |   0.0 |  0.00
Comm    | 0.28466    | 0.28466    | 0.28466    |   0.0 |  0.35
Output  | 5.6296e-05 | 5.6296e-05 | 5.6296e-05 |   0.0 |  0.00
Modify  | 1.0878     | 1.0878     | 1.0878     |   0.0 |  1.33
Other   |            | 0.1181     |            |       |  0.14

Nlocal:           4000 ave        4000 max        4000 min
Histogram: 1 0 0 0 0 0 0 0 0 0
Nghost:           8195 ave        8195 max        8195 min
Histogram: 1 0 0 0 0 0 0 0 0 0
Neighs:         280000 ave      280000 max      280000 min
Histogram: 1 0 0 0 0 0 0 0 0 0

Total # of neighbors = 280000
Ave neighs/atom = 70
Neighbor list builds = 0
Dangerous builds = 0

#----------------------------- Run simulation ---------------------------------#
dump             d1 all custom 10000 md/data/al_fcc/dump_0.04.gz id type x y z # snapshots
run              90000
Per MPI rank memory allocation (min/avg/max) = 4.462 | 4.462 | 4.462 Mbytes
   Step          Temp          E_pair         E_mol          TotEng         Press          Volume    
     10000   36.695292     -13623.859      0             -13604.891      928.40212      66329.957    
    100000   37.829683     -13623.934      0             -13604.38       237.96087      66383.605    
Loop time of 818.309 on 1 procs for 90000 steps with 4000 atoms

Performance: 9.503 ns/day, 2.526 hours/ns, 109.983 timesteps/s, 439.931 katom-step/s
99.5% CPU use with 1 MPI tasks x 1 OpenMP threads

MPI task timing breakdown:
Section |  min time  |  avg time  |  max time  |%varavg| %total
---------------------------------------------------------------
Pair    | 804.58     | 804.58     | 804.58     |   0.0 | 98.32
Neigh   | 0          | 0          | 0          |   0.0 |  0.00
Comm    | 2.5588     | 2.5588     | 2.5588     |   0.0 |  0.31
Output  | 0.14497    | 0.14497    | 0.14497    |   0.0 |  0.02
Modify  | 9.9383     | 9.9383     | 9.9383     |   0.0 |  1.21
Other   |            | 1.088      |            |       |  0.13

Nlocal:           4000 ave        4000 max        4000 min
Histogram: 1 0 0 0 0 0 0 0 0 0
Nghost:           8195 ave        8195 max        8195 min
Histogram: 1 0 0 0 0 0 0 0 0 0
Neighs:         283101 ave      283101 max      283101 min
Histogram: 1 0 0 0 0 0 0 0 0 0

Total # of neighbors = 283101
Ave neighs/atom = 70.77525
Neighbor list builds = 0
Dangerous builds = 0
undump           d1
min_modify       line forcezero
minimize         0 0 100000 100000                                                                               # minimize energy
Per MPI rank memory allocation (min/avg/max) = 5.587 | 5.587 | 5.587 Mbytes
   Step          Temp          E_pair         E_mol          TotEng         Press          Volume    
    100000   37.829683     -13623.934      0             -13604.38       237.96087      66383.605    
    100050   37.829683     -13642.502      0             -13622.948     -1837.1633      66383.605    
Loop time of 0.989194 on 1 procs for 50 steps with 4000 atoms

99.6% CPU use with 1 MPI tasks x 1 OpenMP threads

Minimization stats:
  Stopping criterion = linesearch alpha is zero
  Energy initial, next-to-last, final = 
     -13623.9342754527  -13642.5022727332  -13642.5022727332
  Force two-norm initial, final = 12.42191 6.0527092e-05
  Force max component initial, final = 0.44765856 2.1282793e-06
  Final line search alpha, max atom move = 0.00037125008 7.9012388e-10
  Iterations, force evaluations = 50 109

MPI task timing breakdown:
Section |  min time  |  avg time  |  max time  |%varavg| %total
---------------------------------------------------------------
Pair    | 0.98045    | 0.98045    | 0.98045    |   0.0 | 99.12
Neigh   | 0          | 0          | 0          |   0.0 |  0.00
Comm    | 0.0031737  | 0.0031737  | 0.0031737  |   0.0 |  0.32
Output  | 0          | 0          | 0          |   0.0 |  0.00
Modify  | 0          | 0          | 0          |   0.0 |  0.00
Other   |            | 0.005567   |            |       |  0.56

Nlocal:           4000 ave        4000 max        4000 min
Histogram: 1 0 0 0 0 0 0 0 0 0
Nghost:           8195 ave        8195 max        8195 min
Histogram: 1 0 0 0 0 0 0 0 0 0
Neighs:         282356 ave      282356 max      282356 min
Histogram: 1 0 0 0 0 0 0 0 0 0

Total # of neighbors = 282356
Ave neighs/atom = 70.589
Neighbor list builds = 0
Dangerous builds = 0
write_dump       all custom md/data/al_fcc/dump_0.04_relaxed.gz id type x y z
#------------------------------------------------------------------------------#
Total wall time: 0:15:01
