LAMMPS (29 Aug 2024)
OMP_NUM_THREADS environment is not set. Defaulting to 1 thread. (src/comm.cpp:98)
  using 1 OpenMP thread(s) per MPI task
Lattice spacing in x,y,z = 4.046 4.046 4.046
Created orthogonal box = (0 0 0) to (40.46 40.46 40.46)
  1 by 1 by 1 MPI processor grid
Created 4000 atoms
  using lattice units in orthogonal box = (0 0 0) to (40.46 40.46 40.46)
  create_atoms CPU = 0.001 seconds
Neighbor list info ...
  update: every = 1 steps, delay = 0 steps, check = yes
  max neighbors/atom: 2000, page size: 100000
  master list distance cutoff = 8.5
  ghost atom cutoff = 8.5
  binsize = 4.25, bins = 10 10 10
  1 neighbor lists, perpetual/occasional/extra = 1 0 0
  (1) pair eam/fs, perpetual
      attributes: half, newton on
      pair build: half/bin/atomonly/newton
      stencil: half/bin/3d
      bin: standard
Setting up Verlet run ...
  Unit style    : metal
  Current step  : 0
  Time step     : 0.001
Per MPI rank memory allocation (min/avg/max) = 4.462 | 4.462 | 4.462 Mbytes
   Step          Temp          E_pair         E_mol          TotEng         Press          Volume    
         0   1492.8        -13642.623      0             -12870.978      12036.236      66233.489    
     10000   1467.8907     -12198.738      0             -11439.969     -502.08353      79553.357    
Loop time of 91.0788 on 1 procs for 10000 steps with 4000 atoms

Performance: 9.486 ns/day, 2.530 hours/ns, 109.795 timesteps/s, 439.180 katom-step/s
99.5% CPU use with 1 MPI tasks x 1 OpenMP threads

MPI task timing breakdown:
Section |  min time  |  avg time  |  max time  |%varavg| %total
---------------------------------------------------------------
Pair    | 87.378     | 87.378     | 87.378     |   0.0 | 95.94
Neigh   | 2.1632     | 2.1632     | 2.1632     |   0.0 |  2.38
Comm    | 0.29114    | 0.29114    | 0.29114    |   0.0 |  0.32
Output  | 4.5896e-05 | 4.5896e-05 | 4.5896e-05 |   0.0 |  0.00
Modify  | 1.1184     | 1.1184     | 1.1184     |   0.0 |  1.23
Other   |            | 0.1276     |            |       |  0.14

Nlocal:           4000 ave        4000 max        4000 min
Histogram: 1 0 0 0 0 0 0 0 0 0
Nghost:           6850 ave        6850 max        6850 min
Histogram: 1 0 0 0 0 0 0 0 0 0
Neighs:         257565 ave      257565 max      257565 min
Histogram: 1 0 0 0 0 0 0 0 0 0

Total # of neighbors = 257565
Ave neighs/atom = 64.39125
Neighbor list builds = 287
Dangerous builds = 0
Setting up Verlet run ...
  Unit style    : metal
  Current step  : 10000
  Time step     : 0.001
Per MPI rank memory allocation (min/avg/max) = 4.846 | 4.846 | 4.846 Mbytes
   Step          Temp          E_pair         E_mol          TotEng         Press          Volume    
     10000   1467.8907     -12198.738      0             -11439.969     -502.08353      79553.357    
    100000   1487.0472     -12173.352      0             -11404.681     -366.82195      79998.408    
Loop time of 823.548 on 1 procs for 90000 steps with 4000 atoms

Performance: 9.442 ns/day, 2.542 hours/ns, 109.283 timesteps/s, 437.133 katom-step/s
99.5% CPU use with 1 MPI tasks x 1 OpenMP threads

MPI task timing breakdown:
Section |  min time  |  avg time  |  max time  |%varavg| %total
---------------------------------------------------------------
Pair    | 790.05     | 790.05     | 790.05     |   0.0 | 95.93
Neigh   | 19.519     | 19.519     | 19.519     |   0.0 |  2.37
Comm    | 2.5753     | 2.5753     | 2.5753     |   0.0 |  0.31
Output  | 0.15709    | 0.15709    | 0.15709    |   0.0 |  0.02
Modify  | 10.135     | 10.135     | 10.135     |   0.0 |  1.23
Other   |            | 1.113      |            |       |  0.14

Nlocal:           4000 ave        4000 max        4000 min
Histogram: 1 0 0 0 0 0 0 0 0 0
Nghost:           6908 ave        6908 max        6908 min
Histogram: 1 0 0 0 0 0 0 0 0 0
Neighs:         256100 ave      256100 max      256100 min
Histogram: 1 0 0 0 0 0 0 0 0 0

Total # of neighbors = 256100
Ave neighs/atom = 64.025
Neighbor list builds = 2603
Dangerous builds = 0
Setting up cg style minimization ...
  Unit style    : metal
  Current step  : 100000
Per MPI rank memory allocation (min/avg/max) = 5.971 | 5.971 | 5.971 Mbytes
   Step          Temp          E_pair         E_mol          TotEng         Press          Volume    
    100000   1487.0472     -12173.352      0             -11404.681     -366.82195      79998.408    
    102759   1487.0472     -13140.648      0             -12371.977     -11080.497      79998.408    
Loop time of 43.9075 on 1 procs for 2759 steps with 4000 atoms

99.5% CPU use with 1 MPI tasks x 1 OpenMP threads

Minimization stats:
  Stopping criterion = linesearch alpha is zero
  Energy initial, next-to-last, final = 
     -12173.3520912051  -13140.6481483948  -13140.6481483948
  Force two-norm initial, final = 68.910396 5.0681843e-05
  Force max component initial, final = 3.8972416 1.2144515e-05
  Final line search alpha, max atom move = 3.7044199e-07 4.4988382e-12
  Iterations, force evaluations = 2759 4712

MPI task timing breakdown:
Section |  min time  |  avg time  |  max time  |%varavg| %total
---------------------------------------------------------------
Pair    | 43.047     | 43.047     | 43.047     |   0.0 | 98.04
Neigh   | 0.4489     | 0.4489     | 0.4489     |   0.0 |  1.02
Comm    | 0.12991    | 0.12991    | 0.12991    |   0.0 |  0.30
Output  | 0          | 0          | 0          |   0.0 |  0.00
Modify  | 0          | 0          | 0          |   0.0 |  0.00
Other   |            | 0.2814     |            |       |  0.64

Nlocal:           4000 ave        4000 max        4000 min
Histogram: 1 0 0 0 0 0 0 0 0 0
Nghost:           7032 ave        7032 max        7032 min
Histogram: 1 0 0 0 0 0 0 0 0 0
Neighs:         259989 ave      259989 max      259989 min
Histogram: 1 0 0 0 0 0 0 0 0 0

Total # of neighbors = 259989
Ave neighs/atom = 64.99725
Neighbor list builds = 62
Dangerous builds = 0
Total wall time: 0:15:58
