LAMMPS (29 Aug 2024)
OMP_NUM_THREADS environment is not set. Defaulting to 1 thread. (src/comm.cpp:98)
  using 1 OpenMP thread(s) per MPI task

#---------------------------- Atomic setup ------------------------------------#
units            metal
timestep         0.001
boundary         p p p
lattice          fcc 4.046
Lattice spacing in x,y,z = 4.046 4.046 4.046
region           sim_box block 0 10 0 10 0 10
create_box       1 sim_box
Created orthogonal box = (0 0 0) to (40.46 40.46 40.46)
  1 by 1 by 1 MPI processor grid
create_atoms     1 box
Created 4000 atoms
  using lattice units in orthogonal box = (0 0 0) to (40.46 40.46 40.46)
  create_atoms CPU = 0.001 seconds

pair_style       eam/fs                                             # interatomic potential (Lennard-Jones, EAM, etc.)
pair_coeff       * * ${potentials_dir}/al_eam.fs Al # interatomic potential parameters (ex. eam.alloy Cu_u3.eam)
pair_coeff       * * md/potentials/al_eam.fs Al 
pair_modify      tail yes
neigh_modify     delay 0                                                       # neighbor list update frequency (0 = every timestep)
mass             1 26.981539                                                 # atomic mass
variable         rnd equal round(random(0,999999,42))

#----------------------------- Equilibriation ---------------------------------#
velocity         all create 1418.16 ${rnd} dist gaussian              # initial velocities
velocity         all create 1418.16 420940 dist gaussian              
fix              f2 all nph iso 0 0 1.0        # barostat
variable         rnd equal round(random(0,999999,0))
fix              f3 all temp/csvr 1418.16 1418.16 0.1 ${rnd} # thermostat
fix              f3 all temp/csvr 1418.16 1418.16 0.1 53464 
run              10000                                           # equilibriation run
Neighbor list info ...
  update: every = 1 steps, delay = 0 steps, check = yes
  max neighbors/atom: 2000, page size: 100000
  master list distance cutoff = 8.5
  ghost atom cutoff = 8.5
  binsize = 4.25, bins = 10 10 10
  1 neighbor lists, perpetual/occasional/extra = 1 0 0
  (1) pair eam/fs, perpetual
      attributes: half, newton on
      pair build: half/bin/atomonly/newton
      stencil: half/bin/3d
      bin: standard
Per MPI rank memory allocation (min/avg/max) = 4.462 | 4.462 | 4.462 Mbytes
   Step          Temp          E_pair         E_mol          TotEng         Press          Volume    
         0   1418.16       -13642.623      0             -12909.56       11414.038      66233.489    
     10000   1389.7014     -12251.809      0             -11533.457      655.2528       78662.411    
Loop time of 91.3129 on 1 procs for 10000 steps with 4000 atoms

Performance: 9.462 ns/day, 2.536 hours/ns, 109.514 timesteps/s, 438.054 katom-step/s
99.5% CPU use with 1 MPI tasks x 1 OpenMP threads

MPI task timing breakdown:
Section |  min time  |  avg time  |  max time  |%varavg| %total
---------------------------------------------------------------
Pair    | 87.677     | 87.677     | 87.677     |   0.0 | 96.02
Neigh   | 2.0988     | 2.0988     | 2.0988     |   0.0 |  2.30
Comm    | 0.28983    | 0.28983    | 0.28983    |   0.0 |  0.32
Output  | 5.1427e-05 | 5.1427e-05 | 5.1427e-05 |   0.0 |  0.00
Modify  | 1.1224     | 1.1224     | 1.1224     |   0.0 |  1.23
Other   |            | 0.1248     |            |       |  0.14

Nlocal:           4000 ave        4000 max        4000 min
Histogram: 1 0 0 0 0 0 0 0 0 0
Nghost:           6831 ave        6831 max        6831 min
Histogram: 1 0 0 0 0 0 0 0 0 0
Neighs:         260775 ave      260775 max      260775 min
Histogram: 1 0 0 0 0 0 0 0 0 0

Total # of neighbors = 260775
Ave neighs/atom = 65.19375
Neighbor list builds = 278
Dangerous builds = 0

#----------------------------- Run simulation ---------------------------------#
dump             d1 all custom 10000 md/data/al_fcc/dump_1.52.gz id type x y z # snapshots
run              90000
Per MPI rank memory allocation (min/avg/max) = 4.846 | 4.846 | 4.846 Mbytes
   Step          Temp          E_pair         E_mol          TotEng         Press          Volume    
     10000   1389.7014     -12251.809      0             -11533.457      655.2528       78662.411    
    100000   1406.0227     -12226.298      0             -11499.509     -66.011889      79162.627    
Loop time of 828.813 on 1 procs for 90000 steps with 4000 atoms

Performance: 9.382 ns/day, 2.558 hours/ns, 108.589 timesteps/s, 434.356 katom-step/s
99.5% CPU use with 1 MPI tasks x 1 OpenMP threads

MPI task timing breakdown:
Section |  min time  |  avg time  |  max time  |%varavg| %total
---------------------------------------------------------------
Pair    | 795.78     | 795.78     | 795.78     |   0.0 | 96.01
Neigh   | 19.038     | 19.038     | 19.038     |   0.0 |  2.30
Comm    | 2.6288     | 2.6288     | 2.6288     |   0.0 |  0.32
Output  | 0.15748    | 0.15748    | 0.15748    |   0.0 |  0.02
Modify  | 10.093     | 10.093     | 10.093     |   0.0 |  1.22
Other   |            | 1.112      |            |       |  0.13

Nlocal:           4000 ave        4000 max        4000 min
Histogram: 1 0 0 0 0 0 0 0 0 0
Nghost:           6866 ave        6866 max        6866 min
Histogram: 1 0 0 0 0 0 0 0 0 0
Neighs:         258727 ave      258727 max      258727 min
Histogram: 1 0 0 0 0 0 0 0 0 0

Total # of neighbors = 258727
Ave neighs/atom = 64.68175
Neighbor list builds = 2535
Dangerous builds = 0
undump           d1
min_modify       line forcezero
minimize         0 0 100000 100000                                                                               # minimize energy
Per MPI rank memory allocation (min/avg/max) = 5.971 | 5.971 | 5.971 Mbytes
   Step          Temp          E_pair         E_mol          TotEng         Press          Volume    
    100000   1406.0227     -12226.298      0             -11499.509     -66.011889      79162.627    
    102721   1406.0227     -13173.861      0             -12447.072     -7406.0647      79162.627    
Loop time of 42.4926 on 1 procs for 2721 steps with 4000 atoms

99.5% CPU use with 1 MPI tasks x 1 OpenMP threads

Minimization stats:
  Stopping criterion = linesearch alpha is zero
  Energy initial, next-to-last, final = 
     -12226.2976248248  -13173.8609818956  -13173.8609818956
  Force two-norm initial, final = 67.860804 5.3813146e-05
  Force max component initial, final = 3.6960517 1.0876819e-05
  Final line search alpha, max atom move = 3.4327013e-08 3.733687e-13
  Iterations, force evaluations = 2721 4476

MPI task timing breakdown:
Section |  min time  |  avg time  |  max time  |%varavg| %total
---------------------------------------------------------------
Pair    | 41.523     | 41.523     | 41.523     |   0.0 | 97.72
Neigh   | 0.5738     | 0.5738     | 0.5738     |   0.0 |  1.35
Comm    | 0.1267     | 0.1267     | 0.1267     |   0.0 |  0.30
Output  | 0          | 0          | 0          |   0.0 |  0.00
Modify  | 0          | 0          | 0          |   0.0 |  0.00
Other   |            | 0.269      |            |       |  0.63

Nlocal:           4000 ave        4000 max        4000 min
Histogram: 1 0 0 0 0 0 0 0 0 0
Nghost:           7007 ave        7007 max        7007 min
Histogram: 1 0 0 0 0 0 0 0 0 0
Neighs:         267507 ave      267507 max      267507 min
Histogram: 1 0 0 0 0 0 0 0 0 0

Total # of neighbors = 267507
Ave neighs/atom = 66.87675
Neighbor list builds = 79
Dangerous builds = 0
write_dump       all custom md/data/al_fcc/dump_1.52_relaxed.gz id type x y z
#------------------------------------------------------------------------------#
Total wall time: 0:16:02
