LAMMPS (29 Aug 2024)
OMP_NUM_THREADS environment is not set. Defaulting to 1 thread. (src/comm.cpp:98)
  using 1 OpenMP thread(s) per MPI task

#---------------------------- Atomic setup ------------------------------------#
units            metal
timestep         0.001
boundary         p p p
lattice          fcc 4.046
Lattice spacing in x,y,z = 4.046 4.046 4.046
region           sim_box block 0 10 0 10 0 10
create_box       1 sim_box
Created orthogonal box = (0 0 0) to (40.46 40.46 40.46)
  1 by 1 by 1 MPI processor grid
create_atoms     1 box
Created 4000 atoms
  using lattice units in orthogonal box = (0 0 0) to (40.46 40.46 40.46)
  create_atoms CPU = 0.001 seconds

pair_style       eam/fs                                             # interatomic potential (Lennard-Jones, EAM, etc.)
pair_coeff       * * ${potentials_dir}/al_eam.fs Al # interatomic potential parameters (ex. eam.alloy Cu_u3.eam)
pair_coeff       * * md/potentials/al_eam.fs Al 
pair_modify      tail yes
neigh_modify     delay 0                                                       # neighbor list update frequency (0 = every timestep)
mass             1 26.981539                                                 # atomic mass
variable         rnd equal round(random(0,999999,42))

#----------------------------- Equilibriation ---------------------------------#
velocity         all create 970.32 ${rnd} dist gaussian              # initial velocities
velocity         all create 970.32 420940 dist gaussian              
fix              f2 all nph iso 0 0 1.0        # barostat
variable         rnd equal round(random(0,999999,0))
fix              f3 all temp/csvr 970.32 970.32 0.1 ${rnd} # thermostat
fix              f3 all temp/csvr 970.32 970.32 0.1 53464 
run              10000                                           # equilibriation run
Neighbor list info ...
  update: every = 1 steps, delay = 0 steps, check = yes
  max neighbors/atom: 2000, page size: 100000
  master list distance cutoff = 8.5
  ghost atom cutoff = 8.5
  binsize = 4.25, bins = 10 10 10
  1 neighbor lists, perpetual/occasional/extra = 1 0 0
  (1) pair eam/fs, perpetual
      attributes: half, newton on
      pair build: half/bin/atomonly/newton
      stencil: half/bin/3d
      bin: standard
Per MPI rank memory allocation (min/avg/max) = 4.462 | 4.462 | 4.462 Mbytes
   Step          Temp          E_pair         E_mol          TotEng         Press          Volume    
         0   970.32        -13642.623      0             -13141.054      7680.845       66233.489    
     10000   952.9783      -13022.836      0             -12530.23      -179.43482      71120.231    
Loop time of 96.1341 on 1 procs for 10000 steps with 4000 atoms

Performance: 8.987 ns/day, 2.670 hours/ns, 104.021 timesteps/s, 416.085 katom-step/s
99.5% CPU use with 1 MPI tasks x 1 OpenMP threads

MPI task timing breakdown:
Section |  min time  |  avg time  |  max time  |%varavg| %total
---------------------------------------------------------------
Pair    | 92.772     | 92.772     | 92.772     |   0.0 | 96.50
Neigh   | 1.8311     | 1.8311     | 1.8311     |   0.0 |  1.90
Comm    | 0.30359    | 0.30359    | 0.30359    |   0.0 |  0.32
Output  | 0.00020703 | 0.00020703 | 0.00020703 |   0.0 |  0.00
Modify  | 1.0959     | 1.0959     | 1.0959     |   0.0 |  1.14
Other   |            | 0.131      |            |       |  0.14

Nlocal:           4000 ave        4000 max        4000 min
Histogram: 1 0 0 0 0 0 0 0 0 0
Nghost:           7836 ave        7836 max        7836 min
Histogram: 1 0 0 0 0 0 0 0 0 0
Neighs:         288499 ave      288499 max      288499 min
Histogram: 1 0 0 0 0 0 0 0 0 0

Total # of neighbors = 288499
Ave neighs/atom = 72.12475
Neighbor list builds = 223
Dangerous builds = 0

#----------------------------- Run simulation ---------------------------------#
dump             d1 all custom 10000 md/data/al_fcc/dump_1.04.gz id type x y z # snapshots
run              90000
Per MPI rank memory allocation (min/avg/max) = 4.843 | 4.843 | 4.843 Mbytes
   Step          Temp          E_pair         E_mol          TotEng         Press          Volume    
     10000   952.9783      -13022.836      0             -12530.23      -179.43482      71120.231    
    100000   955.82155     -13002.561      0             -12508.486     -1896.2728      71437.986    
Loop time of 861.843 on 1 procs for 90000 steps with 4000 atoms

Performance: 9.023 ns/day, 2.660 hours/ns, 104.427 timesteps/s, 417.710 katom-step/s
99.5% CPU use with 1 MPI tasks x 1 OpenMP threads

MPI task timing breakdown:
Section |  min time  |  avg time  |  max time  |%varavg| %total
---------------------------------------------------------------
Pair    | 831.34     | 831.34     | 831.34     |   0.0 | 96.46
Neigh   | 16.519     | 16.519     | 16.519     |   0.0 |  1.92
Comm    | 2.7178     | 2.7178     | 2.7178     |   0.0 |  0.32
Output  | 0.1395     | 0.1395     | 0.1395     |   0.0 |  0.02
Modify  | 9.9507     | 9.9507     | 9.9507     |   0.0 |  1.15
Other   |            | 1.179      |            |       |  0.14

Nlocal:           4000 ave        4000 max        4000 min
Histogram: 1 0 0 0 0 0 0 0 0 0
Nghost:           7689 ave        7689 max        7689 min
Histogram: 1 0 0 0 0 0 0 0 0 0
Neighs:         287502 ave      287502 max      287502 min
Histogram: 1 0 0 0 0 0 0 0 0 0

Total # of neighbors = 287502
Ave neighs/atom = 71.8755
Neighbor list builds = 2009
Dangerous builds = 0
undump           d1
min_modify       line forcezero
minimize         0 0 100000 100000                                                                               # minimize energy
Per MPI rank memory allocation (min/avg/max) = 5.968 | 5.968 | 5.968 Mbytes
   Step          Temp          E_pair         E_mol          TotEng         Press          Volume    
    100000   955.82155     -13002.561      0             -12508.486     -1896.2728      71437.986    
    100085   955.82155     -13555.376      0             -13061.301     -43999.103      71437.986    
Loop time of 1.18602 on 1 procs for 85 steps with 4000 atoms

99.6% CPU use with 1 MPI tasks x 1 OpenMP threads

Minimization stats:
  Stopping criterion = linesearch alpha is zero
  Energy initial, next-to-last, final = 
     -13002.5614011379  -13555.3756077524  -13555.3756077524
  Force two-norm initial, final = 58.510134 1.5154076e-05
  Force max component initial, final = 2.9500311 5.4427948e-07
  Final line search alpha, max atom move = 4.8793647e-06 2.6557381e-12
  Iterations, force evaluations = 85 155

MPI task timing breakdown:
Section |  min time  |  avg time  |  max time  |%varavg| %total
---------------------------------------------------------------
Pair    | 1.1652     | 1.1652     | 1.1652     |   0.0 | 98.24
Neigh   | 0.0078975  | 0.0078975  | 0.0078975  |   0.0 |  0.67
Comm    | 0.0045723  | 0.0045723  | 0.0045723  |   0.0 |  0.39
Output  | 0          | 0          | 0          |   0.0 |  0.00
Modify  | 0          | 0          | 0          |   0.0 |  0.00
Other   |            | 0.008393   |            |       |  0.71

Nlocal:           4000 ave        4000 max        4000 min
Histogram: 1 0 0 0 0 0 0 0 0 0
Nghost:           8106 ave        8106 max        8106 min
Histogram: 1 0 0 0 0 0 0 0 0 0
Neighs:         279701 ave      279701 max      279701 min
Histogram: 1 0 0 0 0 0 0 0 0 0

Total # of neighbors = 279701
Ave neighs/atom = 69.92525
Neighbor list builds = 1
Dangerous builds = 0
write_dump       all custom md/data/al_fcc/dump_1.04_relaxed.gz id type x y z
#------------------------------------------------------------------------------#
Total wall time: 0:15:59
