LAMMPS (29 Aug 2024)
OMP_NUM_THREADS environment is not set. Defaulting to 1 thread. (src/comm.cpp:98)
  using 1 OpenMP thread(s) per MPI task

#---------------------------- Atomic setup ------------------------------------#
units            metal
timestep         0.001
boundary         p p p
lattice          fcc 4.046
Lattice spacing in x,y,z = 4.046 4.046 4.046
region           sim_box block 0 10 0 10 0 10
create_box       1 sim_box
Created orthogonal box = (0 0 0) to (40.46 40.46 40.46)
  1 by 1 by 1 MPI processor grid
create_atoms     1 box
Created 4000 atoms
  using lattice units in orthogonal box = (0 0 0) to (40.46 40.46 40.46)
  create_atoms CPU = 0.001 seconds

pair_style       eam/fs                                             # interatomic potential (Lennard-Jones, EAM, etc.)
pair_coeff       * * ${potentials_dir}/al_eam.fs Al # interatomic potential parameters (ex. eam.alloy Cu_u3.eam)
pair_coeff       * * md/potentials/al_eam.fs Al 
pair_modify      tail yes
neigh_modify     delay 0                                                       # neighbor list update frequency (0 = every timestep)
mass             1 26.981539                                                 # atomic mass
variable         rnd equal round(random(0,999999,42))

#----------------------------- Equilibriation ---------------------------------#
velocity         all create 186.60000000000002 ${rnd} dist gaussian              # initial velocities
velocity         all create 186.60000000000002 420940 dist gaussian              
fix              f2 all nph iso 0 0 1.0        # barostat
variable         rnd equal round(random(0,999999,0))
fix              f3 all temp/csvr 186.60000000000002 186.60000000000002 0.1 ${rnd} # thermostat
fix              f3 all temp/csvr 186.60000000000002 186.60000000000002 0.1 53464 
run              10000                                           # equilibriation run
Neighbor list info ...
  update: every = 1 steps, delay = 0 steps, check = yes
  max neighbors/atom: 2000, page size: 100000
  master list distance cutoff = 8.5
  ghost atom cutoff = 8.5
  binsize = 4.25, bins = 10 10 10
  1 neighbor lists, perpetual/occasional/extra = 1 0 0
  (1) pair eam/fs, perpetual
      attributes: half, newton on
      pair build: half/bin/atomonly/newton
      stencil: half/bin/3d
      bin: standard
Per MPI rank memory allocation (min/avg/max) = 4.462 | 4.462 | 4.462 Mbytes
   Step          Temp          E_pair         E_mol          TotEng         Press          Volume    
         0   186.6         -13642.623      0             -13546.168      1147.7581      66233.489    
     10000   181.85401     -13549.231      0             -13455.229     -372.06156      67114.036    
Loop time of 89.8166 on 1 procs for 10000 steps with 4000 atoms

Performance: 9.620 ns/day, 2.495 hours/ns, 111.338 timesteps/s, 445.352 katom-step/s
99.5% CPU use with 1 MPI tasks x 1 OpenMP threads

MPI task timing breakdown:
Section |  min time  |  avg time  |  max time  |%varavg| %total
---------------------------------------------------------------
Pair    | 88.306     | 88.306     | 88.306     |   0.0 | 98.32
Neigh   | 0          | 0          | 0          |   0.0 |  0.00
Comm    | 0.29179    | 0.29179    | 0.29179    |   0.0 |  0.32
Output  | 5.7649e-05 | 5.7649e-05 | 5.7649e-05 |   0.0 |  0.00
Modify  | 1.0986     | 1.0986     | 1.0986     |   0.0 |  1.22
Other   |            | 0.1202     |            |       |  0.13

Nlocal:           4000 ave        4000 max        4000 min
Histogram: 1 0 0 0 0 0 0 0 0 0
Nghost:           8195 ave        8195 max        8195 min
Histogram: 1 0 0 0 0 0 0 0 0 0
Neighs:         280000 ave      280000 max      280000 min
Histogram: 1 0 0 0 0 0 0 0 0 0

Total # of neighbors = 280000
Ave neighs/atom = 70
Neighbor list builds = 0
Dangerous builds = 0

#----------------------------- Run simulation ---------------------------------#
dump             d1 all custom 10000 md/data/al_fcc/dump_0.2.gz id type x y z # snapshots
run              90000
Per MPI rank memory allocation (min/avg/max) = 4.462 | 4.462 | 4.462 Mbytes
   Step          Temp          E_pair         E_mol          TotEng         Press          Volume    
     10000   181.85401     -13549.231      0             -13455.229     -372.06156      67114.036    
    100000   184.83614     -13547.174      0             -13451.63       897.93994      67035.235    
Loop time of 854.675 on 1 procs for 90000 steps with 4000 atoms

Performance: 9.098 ns/day, 2.638 hours/ns, 105.303 timesteps/s, 421.213 katom-step/s
99.5% CPU use with 1 MPI tasks x 1 OpenMP threads

MPI task timing breakdown:
Section |  min time  |  avg time  |  max time  |%varavg| %total
---------------------------------------------------------------
Pair    | 840.9      | 840.9      | 840.9      |   0.0 | 98.39
Neigh   | 0          | 0          | 0          |   0.0 |  0.00
Comm    | 2.5888     | 2.5888     | 2.5888     |   0.0 |  0.30
Output  | 0.14573    | 0.14573    | 0.14573    |   0.0 |  0.02
Modify  | 9.9331     | 9.9331     | 9.9331     |   0.0 |  1.16
Other   |            | 1.105      |            |       |  0.13

Nlocal:           4000 ave        4000 max        4000 min
Histogram: 1 0 0 0 0 0 0 0 0 0
Nghost:           8195 ave        8195 max        8195 min
Histogram: 1 0 0 0 0 0 0 0 0 0
Neighs:         289457 ave      289457 max      289457 min
Histogram: 1 0 0 0 0 0 0 0 0 0

Total # of neighbors = 289457
Ave neighs/atom = 72.36425
Neighbor list builds = 0
Dangerous builds = 0
undump           d1
min_modify       line forcezero
minimize         0 0 100000 100000                                                                               # minimize energy
Per MPI rank memory allocation (min/avg/max) = 5.587 | 5.587 | 5.587 Mbytes
   Step          Temp          E_pair         E_mol          TotEng         Press          Volume    
    100000   184.83614     -13547.174      0             -13451.63       897.93994      67035.235    
    100061   184.83614     -13640.142      0             -13544.599     -7837.3059      67035.235    
Loop time of 1.24363 on 1 procs for 61 steps with 4000 atoms

99.6% CPU use with 1 MPI tasks x 1 OpenMP threads

Minimization stats:
  Stopping criterion = linesearch alpha is zero
  Energy initial, next-to-last, final = 
     -13547.1737681021  -13640.1424461705  -13640.1424461705
  Force two-norm initial, final = 28.673377 2.3679547e-05
  Force max component initial, final = 1.0161264 9.468588e-07
  Final line search alpha, max atom move = 4.1594039e-05 3.9383682e-11
  Iterations, force evaluations = 61 131

MPI task timing breakdown:
Section |  min time  |  avg time  |  max time  |%varavg| %total
---------------------------------------------------------------
Pair    | 1.2332     | 1.2332     | 1.2332     |   0.0 | 99.16
Neigh   | 0          | 0          | 0          |   0.0 |  0.00
Comm    | 0.0038196  | 0.0038196  | 0.0038196  |   0.0 |  0.31
Output  | 0          | 0          | 0          |   0.0 |  0.00
Modify  | 0          | 0          | 0          |   0.0 |  0.00
Other   |            | 0.006576   |            |       |  0.53

Nlocal:           4000 ave        4000 max        4000 min
Histogram: 1 0 0 0 0 0 0 0 0 0
Nghost:           8195 ave        8195 max        8195 min
Histogram: 1 0 0 0 0 0 0 0 0 0
Neighs:         290137 ave      290137 max      290137 min
Histogram: 1 0 0 0 0 0 0 0 0 0

Total # of neighbors = 290137
Ave neighs/atom = 72.53425
Neighbor list builds = 0
Dangerous builds = 0
write_dump       all custom md/data/al_fcc/dump_0.2_relaxed.gz id type x y z
#------------------------------------------------------------------------------#
Total wall time: 0:15:45
