LAMMPS (29 Aug 2024)
OMP_NUM_THREADS environment is not set. Defaulting to 1 thread. (src/comm.cpp:98)
  using 1 OpenMP thread(s) per MPI task
Lattice spacing in x,y,z = 4.046 4.046 4.046
Created orthogonal box = (0 0 0) to (40.46 40.46 40.46)
  1 by 1 by 1 MPI processor grid
Created 4000 atoms
  using lattice units in orthogonal box = (0 0 0) to (40.46 40.46 40.46)
  create_atoms CPU = 0.001 seconds
Neighbor list info ...
  update: every = 1 steps, delay = 0 steps, check = yes
  max neighbors/atom: 2000, page size: 100000
  master list distance cutoff = 8.5
  ghost atom cutoff = 8.5
  binsize = 4.25, bins = 10 10 10
  1 neighbor lists, perpetual/occasional/extra = 1 0 0
  (1) pair eam/fs, perpetual
      attributes: half, newton on
      pair build: half/bin/atomonly/newton
      stencil: half/bin/3d
      bin: standard
Setting up Verlet run ...
  Unit style    : metal
  Current step  : 0
  Time step     : 0.001
Per MPI rank memory allocation (min/avg/max) = 4.462 | 4.462 | 4.462 Mbytes
   Step          Temp          E_pair         E_mol          TotEng         Press          Volume    
         0   821.04        -13642.623      0             -13218.218      6436.4475      66233.489    
     10000   805.19772     -13150.97       0             -12734.754     -1823.3691      70267.918    
Loop time of 97.0115 on 1 procs for 10000 steps with 4000 atoms

Performance: 8.906 ns/day, 2.695 hours/ns, 103.081 timesteps/s, 412.322 katom-step/s
99.6% CPU use with 1 MPI tasks x 1 OpenMP threads

MPI task timing breakdown:
Section |  min time  |  avg time  |  max time  |%varavg| %total
---------------------------------------------------------------
Pair    | 93.844     | 93.844     | 93.844     |   0.0 | 96.73
Neigh   | 1.6171     | 1.6171     | 1.6171     |   0.0 |  1.67
Comm    | 0.30724    | 0.30724    | 0.30724    |   0.0 |  0.32
Output  | 0.0001953  | 0.0001953  | 0.0001953  |   0.0 |  0.00
Modify  | 1.1069     | 1.1069     | 1.1069     |   0.0 |  1.14
Other   |            | 0.136      |            |       |  0.14

Nlocal:           4000 ave        4000 max        4000 min
Histogram: 1 0 0 0 0 0 0 0 0 0
Nghost:           7910 ave        7910 max        7910 min
Histogram: 1 0 0 0 0 0 0 0 0 0
Neighs:         289802 ave      289802 max      289802 min
Histogram: 1 0 0 0 0 0 0 0 0 0

Total # of neighbors = 289802
Ave neighs/atom = 72.4505
Neighbor list builds = 197
Dangerous builds = 0
Setting up Verlet run ...
  Unit style    : metal
  Current step  : 10000
  Time step     : 0.001
Per MPI rank memory allocation (min/avg/max) = 4.843 | 4.843 | 4.843 Mbytes
   Step          Temp          E_pair         E_mol          TotEng         Press          Volume    
     10000   805.19772     -13150.97       0             -12734.754     -1823.3691      70267.918    
    100000   820.07981     -13141.573      0             -12717.664     -91.26969       70188.503    
Loop time of 872.832 on 1 procs for 90000 steps with 4000 atoms

Performance: 8.909 ns/day, 2.694 hours/ns, 103.113 timesteps/s, 412.450 katom-step/s
99.5% CPU use with 1 MPI tasks x 1 OpenMP threads

MPI task timing breakdown:
Section |  min time  |  avg time  |  max time  |%varavg| %total
---------------------------------------------------------------
Pair    | 844        | 844        | 844        |   0.0 | 96.70
Neigh   | 14.803     | 14.803     | 14.803     |   0.0 |  1.70
Comm    | 2.7466     | 2.7466     | 2.7466     |   0.0 |  0.31
Output  | 0.14053    | 0.14053    | 0.14053    |   0.0 |  0.02
Modify  | 10.011     | 10.011     | 10.011     |   0.0 |  1.15
Other   |            | 1.135      |            |       |  0.13

Nlocal:           4000 ave        4000 max        4000 min
Histogram: 1 0 0 0 0 0 0 0 0 0
Nghost:           7916 ave        7916 max        7916 min
Histogram: 1 0 0 0 0 0 0 0 0 0
Neighs:         289990 ave      289990 max      289990 min
Histogram: 1 0 0 0 0 0 0 0 0 0

Total # of neighbors = 289990
Ave neighs/atom = 72.4975
Neighbor list builds = 1800
Dangerous builds = 0
Setting up cg style minimization ...
  Unit style    : metal
  Current step  : 100000
Per MPI rank memory allocation (min/avg/max) = 5.968 | 5.968 | 5.968 Mbytes
   Step          Temp          E_pair         E_mol          TotEng         Press          Volume    
    100000   820.07981     -13141.573      0             -12717.664     -91.26969       70188.503    
    100084   820.07981     -13590.98       0             -13167.072     -33433.385      70188.503    
Loop time of 1.24568 on 1 procs for 84 steps with 4000 atoms

99.6% CPU use with 1 MPI tasks x 1 OpenMP threads

Minimization stats:
  Stopping criterion = linesearch alpha is zero
  Energy initial, next-to-last, final = 
     -13141.5727237998  -13590.9802040365  -13590.9802040365
  Force two-norm initial, final = 55.552181 1.8772434e-05
  Force max component initial, final = 2.50141 6.7857239e-07
  Final line search alpha, max atom move = 4.1063142e-06 2.7864315e-12
  Iterations, force evaluations = 84 163

MPI task timing breakdown:
Section |  min time  |  avg time  |  max time  |%varavg| %total
---------------------------------------------------------------
Pair    | 1.2244     | 1.2244     | 1.2244     |   0.0 | 98.29
Neigh   | 0.0076397  | 0.0076397  | 0.0076397  |   0.0 |  0.61
Comm    | 0.0048958  | 0.0048958  | 0.0048958  |   0.0 |  0.39
Output  | 0          | 0          | 0          |   0.0 |  0.00
Modify  | 0          | 0          | 0          |   0.0 |  0.00
Other   |            | 0.008748   |            |       |  0.70

Nlocal:           4000 ave        4000 max        4000 min
Histogram: 1 0 0 0 0 0 0 0 0 0
Nghost:           8195 ave        8195 max        8195 min
Histogram: 1 0 0 0 0 0 0 0 0 0
Neighs:         280000 ave      280000 max      280000 min
Histogram: 1 0 0 0 0 0 0 0 0 0

Total # of neighbors = 280000
Ave neighs/atom = 70
Neighbor list builds = 1
Dangerous builds = 0
Total wall time: 0:16:11
