LAMMPS (29 Aug 2024)
OMP_NUM_THREADS environment is not set. Defaulting to 1 thread. (src/comm.cpp:98)
  using 1 OpenMP thread(s) per MPI task
Lattice spacing in x,y,z = 4.046 4.046 4.046
Created orthogonal box = (0 0 0) to (40.46 40.46 40.46)
  1 by 1 by 1 MPI processor grid
Created 4000 atoms
  using lattice units in orthogonal box = (0 0 0) to (40.46 40.46 40.46)
  create_atoms CPU = 0.001 seconds
Neighbor list info ...
  update: every = 1 steps, delay = 0 steps, check = yes
  max neighbors/atom: 2000, page size: 100000
  master list distance cutoff = 8.5
  ghost atom cutoff = 8.5
  binsize = 4.25, bins = 10 10 10
  1 neighbor lists, perpetual/occasional/extra = 1 0 0
  (1) pair eam/fs, perpetual
      attributes: half, newton on
      pair build: half/bin/atomonly/newton
      stencil: half/bin/3d
      bin: standard
Setting up Verlet run ...
  Unit style    : metal
  Current step  : 0
  Time step     : 0.001
Per MPI rank memory allocation (min/avg/max) = 4.462 | 4.462 | 4.462 Mbytes
   Step          Temp          E_pair         E_mol          TotEng         Press          Volume    
         0   671.76        -13642.623      0             -13295.383      5192.05        66233.489    
     10000   660.92059     -13262.33       0             -12920.693      1542.7607      69159.034    
Loop time of 97.2524 on 1 procs for 10000 steps with 4000 atoms

Performance: 8.884 ns/day, 2.701 hours/ns, 102.825 timesteps/s, 411.301 katom-step/s
99.5% CPU use with 1 MPI tasks x 1 OpenMP threads

MPI task timing breakdown:
Section |  min time  |  avg time  |  max time  |%varavg| %total
---------------------------------------------------------------
Pair    | 94.32      | 94.32      | 94.32      |   0.0 | 96.99
Neigh   | 1.3772     | 1.3772     | 1.3772     |   0.0 |  1.42
Comm    | 0.30969    | 0.30969    | 0.30969    |   0.0 |  0.32
Output  | 5.8219e-05 | 5.8219e-05 | 5.8219e-05 |   0.0 |  0.00
Modify  | 1.1107     | 1.1107     | 1.1107     |   0.0 |  1.14
Other   |            | 0.1345     |            |       |  0.14

Nlocal:           4000 ave        4000 max        4000 min
Histogram: 1 0 0 0 0 0 0 0 0 0
Nghost:           8075 ave        8075 max        8075 min
Histogram: 1 0 0 0 0 0 0 0 0 0
Neighs:         291306 ave      291306 max      291306 min
Histogram: 1 0 0 0 0 0 0 0 0 0

Total # of neighbors = 291306
Ave neighs/atom = 72.8265
Neighbor list builds = 168
Dangerous builds = 0
Setting up Verlet run ...
  Unit style    : metal
  Current step  : 10000
  Time step     : 0.001
Per MPI rank memory allocation (min/avg/max) = 4.843 | 4.843 | 4.843 Mbytes
   Step          Temp          E_pair         E_mol          TotEng         Press          Volume    
     10000   660.92059     -13262.33       0             -12920.693      1542.7607      69159.034    
    100000   671.68729     -13256.208      0             -12909.005     -1067.914       69417.758    
Loop time of 877.061 on 1 procs for 90000 steps with 4000 atoms

Performance: 8.866 ns/day, 2.707 hours/ns, 102.615 timesteps/s, 410.462 katom-step/s
99.5% CPU use with 1 MPI tasks x 1 OpenMP threads

MPI task timing breakdown:
Section |  min time  |  avg time  |  max time  |%varavg| %total
---------------------------------------------------------------
Pair    | 850.3      | 850.3      | 850.3      |   0.0 | 96.95
Neigh   | 12.716     | 12.716     | 12.716     |   0.0 |  1.45
Comm    | 2.7999     | 2.7999     | 2.7999     |   0.0 |  0.32
Output  | 0.1433     | 0.1433     | 0.1433     |   0.0 |  0.02
Modify  | 9.9399     | 9.9399     | 9.9399     |   0.0 |  1.13
Other   |            | 1.164      |            |       |  0.13

Nlocal:           4000 ave        4000 max        4000 min
Histogram: 1 0 0 0 0 0 0 0 0 0
Nghost:           8075 ave        8075 max        8075 min
Histogram: 1 0 0 0 0 0 0 0 0 0
Neighs:         290360 ave      290360 max      290360 min
Histogram: 1 0 0 0 0 0 0 0 0 0

Total # of neighbors = 290360
Ave neighs/atom = 72.59
Neighbor list builds = 1552
Dangerous builds = 0
Setting up cg style minimization ...
  Unit style    : metal
  Current step  : 100000
Per MPI rank memory allocation (min/avg/max) = 5.968 | 5.968 | 5.968 Mbytes
   Step          Temp          E_pair         E_mol          TotEng         Press          Volume    
    100000   671.68729     -13256.208      0             -12909.005     -1067.914       69417.758    
    100082   671.68729     -13608.448      0             -13261.245     -27372.78       69417.758    
Loop time of 1.49707 on 1 procs for 82 steps with 4000 atoms

99.6% CPU use with 1 MPI tasks x 1 OpenMP threads

Minimization stats:
  Stopping criterion = linesearch alpha is zero
  Energy initial, next-to-last, final = 
     -13256.2078859808  -13608.4475370185  -13608.4475370185
  Force two-norm initial, final = 51.18249 1.3873662e-05
  Force max component initial, final = 1.9608345 4.8963179e-07
  Final line search alpha, max atom move = 0.038028344 1.8619886e-08
  Iterations, force evaluations = 82 160

MPI task timing breakdown:
Section |  min time  |  avg time  |  max time  |%varavg| %total
---------------------------------------------------------------
Pair    | 1.4839     | 1.4839     | 1.4839     |   0.0 | 99.12
Neigh   | 0          | 0          | 0          |   0.0 |  0.00
Comm    | 0.0046659  | 0.0046659  | 0.0046659  |   0.0 |  0.31
Output  | 0          | 0          | 0          |   0.0 |  0.00
Modify  | 0          | 0          | 0          |   0.0 |  0.00
Other   |            | 0.008481   |            |       |  0.57

Nlocal:           4000 ave        4000 max        4000 min
Histogram: 1 0 0 0 0 0 0 0 0 0
Nghost:           8056 ave        8056 max        8056 min
Histogram: 1 0 0 0 0 0 0 0 0 0
Neighs:         290410 ave      290410 max      290410 min
Histogram: 1 0 0 0 0 0 0 0 0 0

Total # of neighbors = 290410
Ave neighs/atom = 72.6025
Neighbor list builds = 0
Dangerous builds = 0
Total wall time: 0:16:15
