LAMMPS (29 Aug 2024)
OMP_NUM_THREADS environment is not set. Defaulting to 1 thread. (src/comm.cpp:98)
  using 1 OpenMP thread(s) per MPI task
Lattice spacing in x,y,z = 4.046 4.046 4.046
Created orthogonal box = (0 0 0) to (40.46 40.46 40.46)
  1 by 1 by 1 MPI processor grid
Created 4000 atoms
  using lattice units in orthogonal box = (0 0 0) to (40.46 40.46 40.46)
  create_atoms CPU = 0.001 seconds
Neighbor list info ...
  update: every = 1 steps, delay = 0 steps, check = yes
  max neighbors/atom: 2000, page size: 100000
  master list distance cutoff = 8.5
  ghost atom cutoff = 8.5
  binsize = 4.25, bins = 10 10 10
  1 neighbor lists, perpetual/occasional/extra = 1 0 0
  (1) pair eam/fs, perpetual
      attributes: half, newton on
      pair build: half/bin/atomonly/newton
      stencil: half/bin/3d
      bin: standard
Setting up Verlet run ...
  Unit style    : metal
  Current step  : 0
  Time step     : 0.001
Per MPI rank memory allocation (min/avg/max) = 4.462 | 4.462 | 4.462 Mbytes
   Step          Temp          E_pair         E_mol          TotEng         Press          Volume    
         0   746.4         -13642.623      0             -13256.801      5814.2488      66233.489    
     10000   727.54655     -13204.796      0             -12828.719     -838.46037      69784.078    
Loop time of 96.7183 on 1 procs for 10000 steps with 4000 atoms

Performance: 8.933 ns/day, 2.687 hours/ns, 103.393 timesteps/s, 413.572 katom-step/s
99.5% CPU use with 1 MPI tasks x 1 OpenMP threads

MPI task timing breakdown:
Section |  min time  |  avg time  |  max time  |%varavg| %total
---------------------------------------------------------------
Pair    | 93.668     | 93.668     | 93.668     |   0.0 | 96.85
Neigh   | 1.499      | 1.499      | 1.499      |   0.0 |  1.55
Comm    | 0.31358    | 0.31358    | 0.31358    |   0.0 |  0.32
Output  | 5.9492e-05 | 5.9492e-05 | 5.9492e-05 |   0.0 |  0.00
Modify  | 1.1067     | 1.1067     | 1.1067     |   0.0 |  1.14
Other   |            | 0.1306     |            |       |  0.14

Nlocal:           4000 ave        4000 max        4000 min
Histogram: 1 0 0 0 0 0 0 0 0 0
Nghost:           8020 ave        8020 max        8020 min
Histogram: 1 0 0 0 0 0 0 0 0 0
Neighs:         290333 ave      290333 max      290333 min
Histogram: 1 0 0 0 0 0 0 0 0 0

Total # of neighbors = 290333
Ave neighs/atom = 72.58325
Neighbor list builds = 183
Dangerous builds = 0
Setting up Verlet run ...
  Unit style    : metal
  Current step  : 10000
  Time step     : 0.001
Per MPI rank memory allocation (min/avg/max) = 4.843 | 4.843 | 4.843 Mbytes
   Step          Temp          E_pair         E_mol          TotEng         Press          Volume    
     10000   727.54655     -13204.796      0             -12828.719     -838.46037      69784.078    
    100000   735.42115     -13194.576      0             -12814.429     -508.31808      69828.131    
Loop time of 875.575 on 1 procs for 90000 steps with 4000 atoms

Performance: 8.881 ns/day, 2.702 hours/ns, 102.790 timesteps/s, 411.159 katom-step/s
99.5% CPU use with 1 MPI tasks x 1 OpenMP threads

MPI task timing breakdown:
Section |  min time  |  avg time  |  max time  |%varavg| %total
---------------------------------------------------------------
Pair    | 847.67     | 847.67     | 847.67     |   0.0 | 96.81
Neigh   | 13.766     | 13.766     | 13.766     |   0.0 |  1.57
Comm    | 2.7696     | 2.7696     | 2.7696     |   0.0 |  0.32
Output  | 0.14352    | 0.14352    | 0.14352    |   0.0 |  0.02
Modify  | 10.001     | 10.001     | 10.001     |   0.0 |  1.14
Other   |            | 1.227      |            |       |  0.14

Nlocal:           4000 ave        4000 max        4000 min
Histogram: 1 0 0 0 0 0 0 0 0 0
Nghost:           7995 ave        7995 max        7995 min
Histogram: 1 0 0 0 0 0 0 0 0 0
Neighs:         290099 ave      290099 max      290099 min
Histogram: 1 0 0 0 0 0 0 0 0 0

Total # of neighbors = 290099
Ave neighs/atom = 72.52475
Neighbor list builds = 1679
Dangerous builds = 0
Setting up cg style minimization ...
  Unit style    : metal
  Current step  : 100000
Per MPI rank memory allocation (min/avg/max) = 5.968 | 5.968 | 5.968 Mbytes
   Step          Temp          E_pair         E_mol          TotEng         Press          Volume    
    100000   735.42115     -13194.576      0             -12814.429     -508.31808      69828.131    
    100076   735.42115     -13599.576      0             -13219.429     -30731.499      69828.131    
Loop time of 1.22205 on 1 procs for 76 steps with 4000 atoms

99.5% CPU use with 1 MPI tasks x 1 OpenMP threads

Minimization stats:
  Stopping criterion = linesearch alpha is zero
  Energy initial, next-to-last, final = 
     -13194.5761031628  -13599.5764079271  -13599.5764079271
  Force two-norm initial, final = 53.805395 2.4521296e-05
  Force max component initial, final = 2.2549252 9.8599345e-07
  Final line search alpha, max atom move = 5.986224e-05 5.9023776e-11
  Iterations, force evaluations = 76 153

MPI task timing breakdown:
Section |  min time  |  avg time  |  max time  |%varavg| %total
---------------------------------------------------------------
Pair    | 1.2091     | 1.2091     | 1.2091     |   0.0 | 98.94
Neigh   | 0          | 0          | 0          |   0.0 |  0.00
Comm    | 0.0044495  | 0.0044495  | 0.0044495  |   0.0 |  0.36
Output  | 0          | 0          | 0          |   0.0 |  0.00
Modify  | 0          | 0          | 0          |   0.0 |  0.00
Other   |            | 0.008465   |            |       |  0.69

Nlocal:           4000 ave        4000 max        4000 min
Histogram: 1 0 0 0 0 0 0 0 0 0
Nghost:           8010 ave        8010 max        8010 min
Histogram: 1 0 0 0 0 0 0 0 0 0
Neighs:         290150 ave      290150 max      290150 min
Histogram: 1 0 0 0 0 0 0 0 0 0

Total # of neighbors = 290150
Ave neighs/atom = 72.5375
Neighbor list builds = 0
Dangerous builds = 0
Total wall time: 0:16:13
