LAMMPS (29 Aug 2024)
OMP_NUM_THREADS environment is not set. Defaulting to 1 thread. (src/comm.cpp:98)
  using 1 OpenMP thread(s) per MPI task
Lattice spacing in x,y,z = 4.046 4.046 4.046
Created orthogonal box = (0 0 0) to (40.46 40.46 40.46)
  1 by 1 by 1 MPI processor grid
Created 4000 atoms
  using lattice units in orthogonal box = (0 0 0) to (40.46 40.46 40.46)
  create_atoms CPU = 0.001 seconds
Neighbor list info ...
  update: every = 1 steps, delay = 0 steps, check = yes
  max neighbors/atom: 2000, page size: 100000
  master list distance cutoff = 8.5
  ghost atom cutoff = 8.5
  binsize = 4.25, bins = 10 10 10
  1 neighbor lists, perpetual/occasional/extra = 1 0 0
  (1) pair eam/fs, perpetual
      attributes: half, newton on
      pair build: half/bin/atomonly/newton
      stencil: half/bin/3d
      bin: standard
Setting up Verlet run ...
  Unit style    : metal
  Current step  : 0
  Time step     : 0.001
Per MPI rank memory allocation (min/avg/max) = 4.462 | 4.462 | 4.462 Mbytes
   Step          Temp          E_pair         E_mol          TotEng         Press          Volume    
         0   1194.24       -13642.623      0             -13025.307      9547.4413      66233.489    
     10000   1174.0242     -12416.925      0             -11810.059      88.627957      76797.702    
Loop time of 91.845 on 1 procs for 10000 steps with 4000 atoms

Performance: 9.407 ns/day, 2.551 hours/ns, 108.879 timesteps/s, 435.517 katom-step/s
99.5% CPU use with 1 MPI tasks x 1 OpenMP threads

MPI task timing breakdown:
Section |  min time  |  avg time  |  max time  |%varavg| %total
---------------------------------------------------------------
Pair    | 88.369     | 88.369     | 88.369     |   0.0 | 96.22
Neigh   | 1.9691     | 1.9691     | 1.9691     |   0.0 |  2.14
Comm    | 0.28492    | 0.28492    | 0.28492    |   0.0 |  0.31
Output  | 0.00020104 | 0.00020104 | 0.00020104 |   0.0 |  0.00
Modify  | 1.0925     | 1.0925     | 1.0925     |   0.0 |  1.19
Other   |            | 0.1288     |            |       |  0.14

Nlocal:           4000 ave        4000 max        4000 min
Histogram: 1 0 0 0 0 0 0 0 0 0
Nghost:           6920 ave        6920 max        6920 min
Histogram: 1 0 0 0 0 0 0 0 0 0
Neighs:         267252 ave      267252 max      267252 min
Histogram: 1 0 0 0 0 0 0 0 0 0

Total # of neighbors = 267252
Ave neighs/atom = 66.813
Neighbor list builds = 254
Dangerous builds = 0
Setting up Verlet run ...
  Unit style    : metal
  Current step  : 10000
  Time step     : 0.001
Per MPI rank memory allocation (min/avg/max) = 4.846 | 4.846 | 4.846 Mbytes
   Step          Temp          E_pair         E_mol          TotEng         Press          Volume    
     10000   1174.0242     -12416.925      0             -11810.059      88.627957      76797.702    
    100000   1195.2822     -12396.373      0             -11778.518      734.69015      76940.422    
Loop time of 814.028 on 1 procs for 90000 steps with 4000 atoms

Performance: 9.552 ns/day, 2.512 hours/ns, 110.561 timesteps/s, 442.245 katom-step/s
99.6% CPU use with 1 MPI tasks x 1 OpenMP threads

MPI task timing breakdown:
Section |  min time  |  avg time  |  max time  |%varavg| %total
---------------------------------------------------------------
Pair    | 783.19     | 783.19     | 783.19     |   0.0 | 96.21
Neigh   | 17.151     | 17.151     | 17.151     |   0.0 |  2.11
Comm    | 2.5486     | 2.5486     | 2.5486     |   0.0 |  0.31
Output  | 0.15038    | 0.15038    | 0.15038    |   0.0 |  0.02
Modify  | 9.8379     | 9.8379     | 9.8379     |   0.0 |  1.21
Other   |            | 1.15       |            |       |  0.14

Nlocal:           4000 ave        4000 max        4000 min
Histogram: 1 0 0 0 0 0 0 0 0 0
Nghost:           6980 ave        6980 max        6980 min
Histogram: 1 0 0 0 0 0 0 0 0 0
Neighs:         266733 ave      266733 max      266733 min
Histogram: 1 0 0 0 0 0 0 0 0 0

Total # of neighbors = 266733
Ave neighs/atom = 66.68325
Neighbor list builds = 2305
Dangerous builds = 0
Setting up cg style minimization ...
  Unit style    : metal
  Current step  : 100000
Per MPI rank memory allocation (min/avg/max) = 5.978 | 5.978 | 5.978 Mbytes
   Step          Temp          E_pair         E_mol          TotEng         Press          Volume    
    100000   1195.2822     -12396.373      0             -11778.518      734.69015      76940.422    
    102718   1195.2822     -13197.033      0             -12579.178     -15021.735      76940.422    
Loop time of 41.9851 on 1 procs for 2718 steps with 4000 atoms

99.5% CPU use with 1 MPI tasks x 1 OpenMP threads

Minimization stats:
  Stopping criterion = linesearch alpha is zero
  Energy initial, next-to-last, final = 
     -12396.3730784624   -13197.032958084   -13197.032958084
  Force two-norm initial, final = 62.6247 4.3306348e-05
  Force max component initial, final = 4.3954923 1.1006536e-05
  Final line search alpha, max atom move = 0.015626649 1.7199528e-07
  Iterations, force evaluations = 2718 4471

MPI task timing breakdown:
Section |  min time  |  avg time  |  max time  |%varavg| %total
---------------------------------------------------------------
Pair    | 41.088     | 41.088     | 41.088     |   0.0 | 97.86
Neigh   | 0.49444    | 0.49444    | 0.49444    |   0.0 |  1.18
Comm    | 0.13246    | 0.13246    | 0.13246    |   0.0 |  0.32
Output  | 0          | 0          | 0          |   0.0 |  0.00
Modify  | 0          | 0          | 0          |   0.0 |  0.00
Other   |            | 0.2703     |            |       |  0.64

Nlocal:           4000 ave        4000 max        4000 min
Histogram: 1 0 0 0 0 0 0 0 0 0
Nghost:           7234 ave        7234 max        7234 min
Histogram: 1 0 0 0 0 0 0 0 0 0
Neighs:         272299 ave      272299 max      272299 min
Histogram: 1 0 0 0 0 0 0 0 0 0

Total # of neighbors = 272299
Ave neighs/atom = 68.07475
Neighbor list builds = 69
Dangerous builds = 0
Total wall time: 0:15:47
