LAMMPS (29 Aug 2024)
OMP_NUM_THREADS environment is not set. Defaulting to 1 thread. (src/comm.cpp:98)
  using 1 OpenMP thread(s) per MPI task
Lattice spacing in x,y,z = 4.046 4.046 4.046
Created orthogonal box = (0 0 0) to (40.46 40.46 40.46)
  1 by 1 by 1 MPI processor grid
Created 4000 atoms
  using lattice units in orthogonal box = (0 0 0) to (40.46 40.46 40.46)
  create_atoms CPU = 0.001 seconds
Neighbor list info ...
  update: every = 1 steps, delay = 0 steps, check = yes
  max neighbors/atom: 2000, page size: 100000
  master list distance cutoff = 8.5
  ghost atom cutoff = 8.5
  binsize = 4.25, bins = 10 10 10
  1 neighbor lists, perpetual/occasional/extra = 1 0 0
  (1) pair eam/fs, perpetual
      attributes: half, newton on
      pair build: half/bin/atomonly/newton
      stencil: half/bin/3d
      bin: standard
Setting up Verlet run ...
  Unit style    : metal
  Current step  : 0
  Time step     : 0.001
Per MPI rank memory allocation (min/avg/max) = 4.462 | 4.462 | 4.462 Mbytes
   Step          Temp          E_pair         E_mol          TotEng         Press          Volume    
         0   1119.6        -13642.623      0             -13063.889      8925.2425      66233.489    
     10000   1107.9994     -12839.993      0             -12267.256      264.22177      72596.508    
Loop time of 95.235 on 1 procs for 10000 steps with 4000 atoms

Performance: 9.072 ns/day, 2.645 hours/ns, 105.003 timesteps/s, 420.014 katom-step/s
99.5% CPU use with 1 MPI tasks x 1 OpenMP threads

MPI task timing breakdown:
Section |  min time  |  avg time  |  max time  |%varavg| %total
---------------------------------------------------------------
Pair    | 91.692     | 91.692     | 91.692     |   0.0 | 96.28
Neigh   | 1.9925     | 1.9925     | 1.9925     |   0.0 |  2.09
Comm    | 0.29996    | 0.29996    | 0.29996    |   0.0 |  0.31
Output  | 6.6034e-05 | 6.6034e-05 | 6.6034e-05 |   0.0 |  0.00
Modify  | 1.1142     | 1.1142     | 1.1142     |   0.0 |  1.17
Other   |            | 0.1365     |            |       |  0.14

Nlocal:           4000 ave        4000 max        4000 min
Histogram: 1 0 0 0 0 0 0 0 0 0
Nghost:           7535 ave        7535 max        7535 min
Histogram: 1 0 0 0 0 0 0 0 0 0
Neighs:         284539 ave      284539 max      284539 min
Histogram: 1 0 0 0 0 0 0 0 0 0

Total # of neighbors = 284539
Ave neighs/atom = 71.13475
Neighbor list builds = 242
Dangerous builds = 0
Setting up Verlet run ...
  Unit style    : metal
  Current step  : 10000
  Time step     : 0.001
Per MPI rank memory allocation (min/avg/max) = 4.843 | 4.843 | 4.843 Mbytes
   Step          Temp          E_pair         E_mol          TotEng         Press          Volume    
     10000   1107.9994     -12839.993      0             -12267.256      264.22177      72596.508    
    100000   1100.5864     -12443.238      0             -11874.333     -1457.2718      76597.636    
Loop time of 829.91 on 1 procs for 90000 steps with 4000 atoms

Performance: 9.370 ns/day, 2.561 hours/ns, 108.446 timesteps/s, 433.782 katom-step/s
99.5% CPU use with 1 MPI tasks x 1 OpenMP threads

MPI task timing breakdown:
Section |  min time  |  avg time  |  max time  |%varavg| %total
---------------------------------------------------------------
Pair    | 797.49     | 797.49     | 797.49     |   0.0 | 96.09
Neigh   | 18.321     | 18.321     | 18.321     |   0.0 |  2.21
Comm    | 2.5376     | 2.5376     | 2.5376     |   0.0 |  0.31
Output  | 0.15277    | 0.15277    | 0.15277    |   0.0 |  0.02
Modify  | 10.274     | 10.274     | 10.274     |   0.0 |  1.24
Other   |            | 1.133      |            |       |  0.14

Nlocal:           4000 ave        4000 max        4000 min
Histogram: 1 0 0 0 0 0 0 0 0 0
Nghost:           6950 ave        6950 max        6950 min
Histogram: 1 0 0 0 0 0 0 0 0 0
Neighs:         267972 ave      267972 max      267972 min
Histogram: 1 0 0 0 0 0 0 0 0 0

Total # of neighbors = 267972
Ave neighs/atom = 66.993
Neighbor list builds = 2217
Dangerous builds = 0
Setting up cg style minimization ...
  Unit style    : metal
  Current step  : 100000
Per MPI rank memory allocation (min/avg/max) = 5.971 | 5.971 | 5.971 Mbytes
   Step          Temp          E_pair         E_mol          TotEng         Press          Volume    
    100000   1100.5864     -12443.238      0             -11874.333     -1457.2718      76597.636    
    103300   1100.5864     -13210.367      0             -12641.461     -10730.746      76597.636    
Loop time of 53.4166 on 1 procs for 3300 steps with 4000 atoms

99.5% CPU use with 1 MPI tasks x 1 OpenMP threads

Minimization stats:
  Stopping criterion = linesearch alpha is zero
  Energy initial, next-to-last, final = 
     -12443.2381128119  -13210.3665180852  -13210.3665180852
  Force two-norm initial, final = 59.386014 5.3043336e-05
  Force max component initial, final = 3.4469591 1.419498e-05
  Final line search alpha, max atom move = 3.3941621e-08 4.8180063e-13
  Iterations, force evaluations = 3300 5597

MPI task timing breakdown:
Section |  min time  |  avg time  |  max time  |%varavg| %total
---------------------------------------------------------------
Pair    | 52.302     | 52.302     | 52.302     |   0.0 | 97.91
Neigh   | 0.6364     | 0.6364     | 0.6364     |   0.0 |  1.19
Comm    | 0.15336    | 0.15336    | 0.15336    |   0.0 |  0.29
Output  | 0          | 0          | 0          |   0.0 |  0.00
Modify  | 0          | 0          | 0          |   0.0 |  0.00
Other   |            | 0.3252     |            |       |  0.61

Nlocal:           4000 ave        4000 max        4000 min
Histogram: 1 0 0 0 0 0 0 0 0 0
Nghost:           6991 ave        6991 max        6991 min
Histogram: 1 0 0 0 0 0 0 0 0 0
Neighs:         275104 ave      275104 max      275104 min
Histogram: 1 0 0 0 0 0 0 0 0 0

Total # of neighbors = 275104
Ave neighs/atom = 68.776
Neighbor list builds = 79
Dangerous builds = 0
Total wall time: 0:16:18
