LAMMPS (29 Aug 2024)
OMP_NUM_THREADS environment is not set. Defaulting to 1 thread. (src/comm.cpp:98)
  using 1 OpenMP thread(s) per MPI task
Lattice spacing in x,y,z = 4.046 4.046 4.046
Created orthogonal box = (0 0 0) to (40.46 40.46 40.46)
  1 by 1 by 1 MPI processor grid
Created 4000 atoms
  using lattice units in orthogonal box = (0 0 0) to (40.46 40.46 40.46)
  create_atoms CPU = 0.001 seconds
Neighbor list info ...
  update: every = 1 steps, delay = 0 steps, check = yes
  max neighbors/atom: 2000, page size: 100000
  master list distance cutoff = 8.5
  ghost atom cutoff = 8.5
  binsize = 4.25, bins = 10 10 10
  1 neighbor lists, perpetual/occasional/extra = 1 0 0
  (1) pair eam/fs, perpetual
      attributes: half, newton on
      pair build: half/bin/atomonly/newton
      stencil: half/bin/3d
      bin: standard
Setting up Verlet run ...
  Unit style    : metal
  Current step  : 0
  Time step     : 0.001
Per MPI rank memory allocation (min/avg/max) = 4.462 | 4.462 | 4.462 Mbytes
   Step          Temp          E_pair         E_mol          TotEng         Press          Volume    
         0   1306.2        -13642.623      0             -12967.434      10480.739      66233.489    
     10000   1271.658      -12331.041      0             -11673.706      455.55187      77738.713    
Loop time of 92.6096 on 1 procs for 10000 steps with 4000 atoms

Performance: 9.329 ns/day, 2.572 hours/ns, 107.980 timesteps/s, 431.921 katom-step/s
99.6% CPU use with 1 MPI tasks x 1 OpenMP threads

MPI task timing breakdown:
Section |  min time  |  avg time  |  max time  |%varavg| %total
---------------------------------------------------------------
Pair    | 89.04      | 89.04      | 89.04      |   0.0 | 96.15
Neigh   | 2.0338     | 2.0338     | 2.0338     |   0.0 |  2.20
Comm    | 0.28943    | 0.28943    | 0.28943    |   0.0 |  0.31
Output  | 5.6376e-05 | 5.6376e-05 | 5.6376e-05 |   0.0 |  0.00
Modify  | 1.1164     | 1.1164     | 1.1164     |   0.0 |  1.21
Other   |            | 0.1296     |            |       |  0.14

Nlocal:           4000 ave        4000 max        4000 min
Histogram: 1 0 0 0 0 0 0 0 0 0
Nghost:           6936 ave        6936 max        6936 min
Histogram: 1 0 0 0 0 0 0 0 0 0
Neighs:         263810 ave      263810 max      263810 min
Histogram: 1 0 0 0 0 0 0 0 0 0

Total # of neighbors = 263810
Ave neighs/atom = 65.9525
Neighbor list builds = 268
Dangerous builds = 0
Setting up Verlet run ...
  Unit style    : metal
  Current step  : 10000
  Time step     : 0.001
Per MPI rank memory allocation (min/avg/max) = 4.846 | 4.846 | 4.846 Mbytes
   Step          Temp          E_pair         E_mol          TotEng         Press          Volume    
     10000   1271.658      -12331.041      0             -11673.706      455.55187      77738.713    
    100000   1293.2532     -12301.279      0             -11632.782     -113.45648      78065.467    
Loop time of 829.861 on 1 procs for 90000 steps with 4000 atoms

Performance: 9.370 ns/day, 2.561 hours/ns, 108.452 timesteps/s, 433.808 katom-step/s
99.6% CPU use with 1 MPI tasks x 1 OpenMP threads

MPI task timing breakdown:
Section |  min time  |  avg time  |  max time  |%varavg| %total
---------------------------------------------------------------
Pair    | 797.6      | 797.6      | 797.6      |   0.0 | 96.11
Neigh   | 18.163     | 18.163     | 18.163     |   0.0 |  2.19
Comm    | 2.621      | 2.621      | 2.621      |   0.0 |  0.32
Output  | 0.15747    | 0.15747    | 0.15747    |   0.0 |  0.02
Modify  | 10.16      | 10.16      | 10.16      |   0.0 |  1.22
Other   |            | 1.156      |            |       |  0.14

Nlocal:           4000 ave        4000 max        4000 min
Histogram: 1 0 0 0 0 0 0 0 0 0
Nghost:           6924 ave        6924 max        6924 min
Histogram: 1 0 0 0 0 0 0 0 0 0
Neighs:         262910 ave      262910 max      262910 min
Histogram: 1 0 0 0 0 0 0 0 0 0

Total # of neighbors = 262910
Ave neighs/atom = 65.7275
Neighbor list builds = 2425
Dangerous builds = 0
Setting up cg style minimization ...
  Unit style    : metal
  Current step  : 100000
Per MPI rank memory allocation (min/avg/max) = 5.971 | 5.971 | 5.971 Mbytes
   Step          Temp          E_pair         E_mol          TotEng         Press          Volume    
    100000   1293.2532     -12301.279      0             -11632.782     -113.45648      78065.467    
    103155   1293.2532     -13191.164      0             -12522.666     -10923.664      78065.467    
Loop time of 50.1193 on 1 procs for 3155 steps with 4000 atoms

99.6% CPU use with 1 MPI tasks x 1 OpenMP threads

Minimization stats:
  Stopping criterion = linesearch alpha is zero
  Energy initial, next-to-last, final = 
     -12301.2791501085  -13191.1635018366  -13191.1635018366
  Force two-norm initial, final = 64.399633 3.1931538e-05
  Force max component initial, final = 3.750138 9.530659e-06
  Final line search alpha, max atom move = 4.0693098e-06 3.8783204e-11
  Iterations, force evaluations = 3155 5242

MPI task timing breakdown:
Section |  min time  |  avg time  |  max time  |%varavg| %total
---------------------------------------------------------------
Pair    | 49.057     | 49.057     | 49.057     |   0.0 | 97.88
Neigh   | 0.60431    | 0.60431    | 0.60431    |   0.0 |  1.21
Comm    | 0.14294    | 0.14294    | 0.14294    |   0.0 |  0.29
Output  | 0          | 0          | 0          |   0.0 |  0.00
Modify  | 0          | 0          | 0          |   0.0 |  0.00
Other   |            | 0.3156     |            |       |  0.63

Nlocal:           4000 ave        4000 max        4000 min
Histogram: 1 0 0 0 0 0 0 0 0 0
Nghost:           6679 ave        6679 max        6679 min
Histogram: 1 0 0 0 0 0 0 0 0 0
Neighs:         270793 ave      270793 max      270793 min
Histogram: 1 0 0 0 0 0 0 0 0 0

Total # of neighbors = 270793
Ave neighs/atom = 67.69825
Neighbor list builds = 83
Dangerous builds = 0
Total wall time: 0:16:12
