LAMMPS (29 Aug 2024)
OMP_NUM_THREADS environment is not set. Defaulting to 1 thread. (src/comm.cpp:98)
  using 1 OpenMP thread(s) per MPI task
Lattice spacing in x,y,z = 4.046 4.046 4.046
Created orthogonal box = (0 0 0) to (40.46 40.46 40.46)
  1 by 1 by 1 MPI processor grid
Created 4000 atoms
  using lattice units in orthogonal box = (0 0 0) to (40.46 40.46 40.46)
  create_atoms CPU = 0.001 seconds
Neighbor list info ...
  update: every = 1 steps, delay = 0 steps, check = yes
  max neighbors/atom: 2000, page size: 100000
  master list distance cutoff = 8.5
  ghost atom cutoff = 8.5
  binsize = 4.25, bins = 10 10 10
  1 neighbor lists, perpetual/occasional/extra = 1 0 0
  (1) pair eam/fs, perpetual
      attributes: half, newton on
      pair build: half/bin/atomonly/newton
      stencil: half/bin/3d
      bin: standard
Setting up Verlet run ...
  Unit style    : metal
  Current step  : 0
  Time step     : 0.001
Per MPI rank memory allocation (min/avg/max) = 4.462 | 4.462 | 4.462 Mbytes
   Step          Temp          E_pair         E_mol          TotEng         Press          Volume    
         0   522.48        -13642.623      0             -13372.547      3947.6525      66233.489    
     10000   519.87676     -13364.131      0             -13095.4        215.58862      68517.116    
Loop time of 97.2322 on 1 procs for 10000 steps with 4000 atoms

Performance: 8.886 ns/day, 2.701 hours/ns, 102.847 timesteps/s, 411.386 katom-step/s
99.5% CPU use with 1 MPI tasks x 1 OpenMP threads

MPI task timing breakdown:
Section |  min time  |  avg time  |  max time  |%varavg| %total
---------------------------------------------------------------
Pair    | 94.592     | 94.592     | 94.592     |   0.0 | 97.28
Neigh   | 1.0915     | 1.0915     | 1.0915     |   0.0 |  1.12
Comm    | 0.3097     | 0.3097     | 0.3097     |   0.0 |  0.32
Output  | 6.1986e-05 | 6.1986e-05 | 6.1986e-05 |   0.0 |  0.00
Modify  | 1.1112     | 1.1112     | 1.1112     |   0.0 |  1.14
Other   |            | 0.1281     |            |       |  0.13

Nlocal:           4000 ave        4000 max        4000 min
Histogram: 1 0 0 0 0 0 0 0 0 0
Nghost:           8141 ave        8141 max        8141 min
Histogram: 1 0 0 0 0 0 0 0 0 0
Neighs:         291494 ave      291494 max      291494 min
Histogram: 1 0 0 0 0 0 0 0 0 0

Total # of neighbors = 291494
Ave neighs/atom = 72.8735
Neighbor list builds = 134
Dangerous builds = 0
Setting up Verlet run ...
  Unit style    : metal
  Current step  : 10000
  Time step     : 0.001
Per MPI rank memory allocation (min/avg/max) = 4.462 | 4.462 | 4.462 Mbytes
   Step          Temp          E_pair         E_mol          TotEng         Press          Volume    
     10000   519.87676     -13364.131      0             -13095.4        215.58862      68517.116    
    100000   515.75089     -13352.678      0             -13086.081     -712.0067       68665.658    
Loop time of 878.938 on 1 procs for 90000 steps with 4000 atoms

Performance: 8.847 ns/day, 2.713 hours/ns, 102.396 timesteps/s, 409.585 katom-step/s
99.6% CPU use with 1 MPI tasks x 1 OpenMP threads

MPI task timing breakdown:
Section |  min time  |  avg time  |  max time  |%varavg| %total
---------------------------------------------------------------
Pair    | 855.21     | 855.21     | 855.21     |   0.0 | 97.30
Neigh   | 9.5518     | 9.5518     | 9.5518     |   0.0 |  1.09
Comm    | 2.7826     | 2.7826     | 2.7826     |   0.0 |  0.32
Output  | 0.14301    | 0.14301    | 0.14301    |   0.0 |  0.02
Modify  | 10.06      | 10.06      | 10.06      |   0.0 |  1.14
Other   |            | 1.186      |            |       |  0.13

Nlocal:           4000 ave        4000 max        4000 min
Histogram: 1 0 0 0 0 0 0 0 0 0
Nghost:           8167 ave        8167 max        8167 min
Histogram: 1 0 0 0 0 0 0 0 0 0
Neighs:         290821 ave      290821 max      290821 min
Histogram: 1 0 0 0 0 0 0 0 0 0

Total # of neighbors = 290821
Ave neighs/atom = 72.70525
Neighbor list builds = 1169
Dangerous builds = 0
Setting up cg style minimization ...
  Unit style    : metal
  Current step  : 100000
Per MPI rank memory allocation (min/avg/max) = 5.587 | 5.587 | 5.587 Mbytes
   Step          Temp          E_pair         E_mol          TotEng         Press          Volume    
    100000   515.75089     -13352.678      0             -13086.081     -712.0067       68665.658    
    100072   515.75089     -13622.157      0             -13355.56      -21512.476      68665.658    
Loop time of 1.39608 on 1 procs for 72 steps with 4000 atoms

99.5% CPU use with 1 MPI tasks x 1 OpenMP threads

Minimization stats:
  Stopping criterion = linesearch alpha is zero
  Energy initial, next-to-last, final = 
     -13352.6779889685  -13622.1574116257  -13622.1574116257
  Force two-norm initial, final = 46.23373 1.2850762e-05
  Force max component initial, final = 1.6176169 4.2643118e-07
  Final line search alpha, max atom move = 0 0
  Iterations, force evaluations = 72 145

MPI task timing breakdown:
Section |  min time  |  avg time  |  max time  |%varavg| %total
---------------------------------------------------------------
Pair    | 1.3834     | 1.3834     | 1.3834     |   0.0 | 99.09
Neigh   | 0          | 0          | 0          |   0.0 |  0.00
Comm    | 0.0043957  | 0.0043957  | 0.0043957  |   0.0 |  0.31
Output  | 0          | 0          | 0          |   0.0 |  0.00
Modify  | 0          | 0          | 0          |   0.0 |  0.00
Other   |            | 0.00829    |            |       |  0.59

Nlocal:           4000 ave        4000 max        4000 min
Histogram: 1 0 0 0 0 0 0 0 0 0
Nghost:           8156 ave        8156 max        8156 min
Histogram: 1 0 0 0 0 0 0 0 0 0
Neighs:         290984 ave      290984 max      290984 min
Histogram: 1 0 0 0 0 0 0 0 0 0

Total # of neighbors = 290984
Ave neighs/atom = 72.746
Neighbor list builds = 0
Dangerous builds = 0
Total wall time: 0:16:17
