LAMMPS (29 Aug 2024)
OMP_NUM_THREADS environment is not set. Defaulting to 1 thread. (src/comm.cpp:98)
  using 1 OpenMP thread(s) per MPI task
Lattice spacing in x,y,z = 4.046 4.046 4.046
Created orthogonal box = (0 0 0) to (40.46 40.46 40.46)
  1 by 1 by 1 MPI processor grid
Created 4000 atoms
  using lattice units in orthogonal box = (0 0 0) to (40.46 40.46 40.46)
  create_atoms CPU = 0.001 seconds
Neighbor list info ...
  update: every = 1 steps, delay = 0 steps, check = yes
  max neighbors/atom: 2000, page size: 100000
  master list distance cutoff = 8.5
  ghost atom cutoff = 8.5
  binsize = 4.25, bins = 10 10 10
  1 neighbor lists, perpetual/occasional/extra = 1 0 0
  (1) pair eam/fs, perpetual
      attributes: half, newton on
      pair build: half/bin/atomonly/newton
      stencil: half/bin/3d
      bin: standard
Setting up Verlet run ...
  Unit style    : metal
  Current step  : 0
  Time step     : 0.001
Per MPI rank memory allocation (min/avg/max) = 4.462 | 4.462 | 4.462 Mbytes
   Step          Temp          E_pair         E_mol          TotEng         Press          Volume    
         0   1082.28       -13642.623      0             -13083.18       8614.1432      66233.489    
     10000   1064.1763     -12909.796      0             -12359.711      619.85706      71915.456    
Loop time of 95.9209 on 1 procs for 10000 steps with 4000 atoms

Performance: 9.007 ns/day, 2.664 hours/ns, 104.253 timesteps/s, 417.010 katom-step/s
99.6% CPU use with 1 MPI tasks x 1 OpenMP threads

MPI task timing breakdown:
Section |  min time  |  avg time  |  max time  |%varavg| %total
---------------------------------------------------------------
Pair    | 92.43      | 92.43      | 92.43      |   0.0 | 96.36
Neigh   | 1.9563     | 1.9563     | 1.9563     |   0.0 |  2.04
Comm    | 0.29913    | 0.29913    | 0.29913    |   0.0 |  0.31
Output  | 0.00019457 | 0.00019457 | 0.00019457 |   0.0 |  0.00
Modify  | 1.1014     | 1.1014     | 1.1014     |   0.0 |  1.15
Other   |            | 0.1334     |            |       |  0.14

Nlocal:           4000 ave        4000 max        4000 min
Histogram: 1 0 0 0 0 0 0 0 0 0
Nghost:           7511 ave        7511 max        7511 min
Histogram: 1 0 0 0 0 0 0 0 0 0
Neighs:         286910 ave      286910 max      286910 min
Histogram: 1 0 0 0 0 0 0 0 0 0

Total # of neighbors = 286910
Ave neighs/atom = 71.7275
Neighbor list builds = 238
Dangerous builds = 0
Setting up Verlet run ...
  Unit style    : metal
  Current step  : 10000
  Time step     : 0.001
Per MPI rank memory allocation (min/avg/max) = 4.843 | 4.843 | 4.843 Mbytes
   Step          Temp          E_pair         E_mol          TotEng         Press          Volume    
     10000   1064.1763     -12909.796      0             -12359.711      619.85706      71915.456    
    100000   1064.3617     -12866.784      0             -12316.603     -913.58969      72448.63     
Loop time of 860.042 on 1 procs for 90000 steps with 4000 atoms

Performance: 9.041 ns/day, 2.654 hours/ns, 104.646 timesteps/s, 418.584 katom-step/s
99.6% CPU use with 1 MPI tasks x 1 OpenMP threads

MPI task timing breakdown:
Section |  min time  |  avg time  |  max time  |%varavg| %total
---------------------------------------------------------------
Pair    | 828.3      | 828.3      | 828.3      |   0.0 | 96.31
Neigh   | 17.791     | 17.791     | 17.791     |   0.0 |  2.07
Comm    | 2.6949     | 2.6949     | 2.6949     |   0.0 |  0.31
Output  | 0.13951    | 0.13951    | 0.13951    |   0.0 |  0.02
Modify  | 10.004     | 10.004     | 10.004     |   0.0 |  1.16
Other   |            | 1.109      |            |       |  0.13

Nlocal:           4000 ave        4000 max        4000 min
Histogram: 1 0 0 0 0 0 0 0 0 0
Nghost:           7529 ave        7529 max        7529 min
Histogram: 1 0 0 0 0 0 0 0 0 0
Neighs:         285081 ave      285081 max      285081 min
Histogram: 1 0 0 0 0 0 0 0 0 0

Total # of neighbors = 285081
Ave neighs/atom = 71.27025
Neighbor list builds = 2160
Dangerous builds = 0
Setting up cg style minimization ...
  Unit style    : metal
  Current step  : 100000
Per MPI rank memory allocation (min/avg/max) = 5.968 | 5.968 | 5.968 Mbytes
   Step          Temp          E_pair         E_mol          TotEng         Press          Volume    
    100000   1064.3617     -12866.784      0             -12316.603     -913.58969      72448.63     
    100125   1064.3617     -13515.917      0             -12965.736     -51975.264      72448.63     
Loop time of 1.68398 on 1 procs for 125 steps with 4000 atoms

99.6% CPU use with 1 MPI tasks x 1 OpenMP threads

Minimization stats:
  Stopping criterion = linesearch alpha is zero
  Energy initial, next-to-last, final = 
     -12866.7838847698  -13515.9165196419  -13515.9165196419
  Force two-norm initial, final = 61.36994 0.00020825593
  Force max component initial, final = 2.6610058 4.808486e-05
  Final line search alpha, max atom move = 0.2820698 1.3563287e-05
  Iterations, force evaluations = 125 218

MPI task timing breakdown:
Section |  min time  |  avg time  |  max time  |%varavg| %total
---------------------------------------------------------------
Pair    | 1.6495     | 1.6495     | 1.6495     |   0.0 | 97.95
Neigh   | 0.015676   | 0.015676   | 0.015676   |   0.0 |  0.93
Comm    | 0.0065446  | 0.0065446  | 0.0065446  |   0.0 |  0.39
Output  | 0          | 0          | 0          |   0.0 |  0.00
Modify  | 0          | 0          | 0          |   0.0 |  0.00
Other   |            | 0.01225    |            |       |  0.73

Nlocal:           4000 ave        4000 max        4000 min
Histogram: 1 0 0 0 0 0 0 0 0 0
Nghost:           8178 ave        8178 max        8178 min
Histogram: 1 0 0 0 0 0 0 0 0 0
Neighs:         279886 ave      279886 max      279886 min
Histogram: 1 0 0 0 0 0 0 0 0 0

Total # of neighbors = 279886
Ave neighs/atom = 69.9715
Neighbor list builds = 2
Dangerous builds = 0
Total wall time: 0:15:57
