LAMMPS (29 Aug 2024)
OMP_NUM_THREADS environment is not set. Defaulting to 1 thread. (src/comm.cpp:98)
  using 1 OpenMP thread(s) per MPI task

#---------------------------- Atomic setup ------------------------------------#
units            metal
timestep         0.001
boundary         p p p
lattice          fcc 4.046
Lattice spacing in x,y,z = 4.046 4.046 4.046
region           sim_box block 0 10 0 10 0 10
create_box       1 sim_box
Created orthogonal box = (0 0 0) to (40.46 40.46 40.46)
  1 by 1 by 1 MPI processor grid
create_atoms     1 box
Created 4000 atoms
  using lattice units in orthogonal box = (0 0 0) to (40.46 40.46 40.46)
  create_atoms CPU = 0.001 seconds

pair_style       eam/fs                                             # interatomic potential (Lennard-Jones, EAM, etc.)
pair_coeff       * * ${potentials_dir}/al_eam.fs Al # interatomic potential parameters (ex. eam.alloy Cu_u3.eam)
pair_coeff       * * md/potentials/al_eam.fs Al 
pair_modify      tail yes
neigh_modify     delay 0                                                       # neighbor list update frequency (0 = every timestep)
mass             1 26.981539                                                 # atomic mass
variable         rnd equal round(random(0,999999,42))

#----------------------------- Equilibriation ---------------------------------#
velocity         all create 111.96 ${rnd} dist gaussian              # initial velocities
velocity         all create 111.96 420940 dist gaussian              
fix              f2 all nph iso 0 0 1.0        # barostat
variable         rnd equal round(random(0,999999,0))
fix              f3 all temp/csvr 111.96 111.96 0.1 ${rnd} # thermostat
fix              f3 all temp/csvr 111.96 111.96 0.1 53464 
run              10000                                           # equilibriation run
Neighbor list info ...
  update: every = 1 steps, delay = 0 steps, check = yes
  max neighbors/atom: 2000, page size: 100000
  master list distance cutoff = 8.5
  ghost atom cutoff = 8.5
  binsize = 4.25, bins = 10 10 10
  1 neighbor lists, perpetual/occasional/extra = 1 0 0
  (1) pair eam/fs, perpetual
      attributes: half, newton on
      pair build: half/bin/atomonly/newton
      stencil: half/bin/3d
      bin: standard
Per MPI rank memory allocation (min/avg/max) = 4.462 | 4.462 | 4.462 Mbytes
   Step          Temp          E_pair         E_mol          TotEng         Press          Volume    
         0   111.96        -13642.623      0             -13584.75       525.55938      66233.489    
     10000   109.4539      -13586.886      0             -13530.308      716.29295      66711.036    
Loop time of 89.189 on 1 procs for 10000 steps with 4000 atoms

Performance: 9.687 ns/day, 2.477 hours/ns, 112.121 timesteps/s, 448.486 katom-step/s
99.5% CPU use with 1 MPI tasks x 1 OpenMP threads

MPI task timing breakdown:
Section |  min time  |  avg time  |  max time  |%varavg| %total
---------------------------------------------------------------
Pair    | 87.696     | 87.696     | 87.696     |   0.0 | 98.33
Neigh   | 0          | 0          | 0          |   0.0 |  0.00
Comm    | 0.28498    | 0.28498    | 0.28498    |   0.0 |  0.32
Output  | 5.0975e-05 | 5.0975e-05 | 5.0975e-05 |   0.0 |  0.00
Modify  | 1.09       | 1.09       | 1.09       |   0.0 |  1.22
Other   |            | 0.1178     |            |       |  0.13

Nlocal:           4000 ave        4000 max        4000 min
Histogram: 1 0 0 0 0 0 0 0 0 0
Nghost:           8195 ave        8195 max        8195 min
Histogram: 1 0 0 0 0 0 0 0 0 0
Neighs:         280000 ave      280000 max      280000 min
Histogram: 1 0 0 0 0 0 0 0 0 0

Total # of neighbors = 280000
Ave neighs/atom = 70
Neighbor list builds = 0
Dangerous builds = 0

#----------------------------- Run simulation ---------------------------------#
dump             d1 all custom 10000 md/data/al_fcc/dump_0.12.gz id type x y z # snapshots
run              90000
Per MPI rank memory allocation (min/avg/max) = 4.462 | 4.462 | 4.462 Mbytes
   Step          Temp          E_pair         E_mol          TotEng         Press          Volume    
     10000   109.4539      -13586.886      0             -13530.308      716.29295      66711.036    
    100000   110.48663     -13585.537      0             -13528.425     -105.6994       66779.293    
Loop time of 845.901 on 1 procs for 90000 steps with 4000 atoms

Performance: 9.193 ns/day, 2.611 hours/ns, 106.395 timesteps/s, 425.582 katom-step/s
99.5% CPU use with 1 MPI tasks x 1 OpenMP threads

MPI task timing breakdown:
Section |  min time  |  avg time  |  max time  |%varavg| %total
---------------------------------------------------------------
Pair    | 832.29     | 832.29     | 832.29     |   0.0 | 98.39
Neigh   | 0          | 0          | 0          |   0.0 |  0.00
Comm    | 2.574      | 2.574      | 2.574      |   0.0 |  0.30
Output  | 0.14679    | 0.14679    | 0.14679    |   0.0 |  0.02
Modify  | 9.8552     | 9.8552     | 9.8552     |   0.0 |  1.17
Other   |            | 1.034      |            |       |  0.12

Nlocal:           4000 ave        4000 max        4000 min
Histogram: 1 0 0 0 0 0 0 0 0 0
Nghost:           8195 ave        8195 max        8195 min
Histogram: 1 0 0 0 0 0 0 0 0 0
Neighs:         288327 ave      288327 max      288327 min
Histogram: 1 0 0 0 0 0 0 0 0 0

Total # of neighbors = 288327
Ave neighs/atom = 72.08175
Neighbor list builds = 0
Dangerous builds = 0
undump           d1
min_modify       line forcezero
minimize         0 0 100000 100000                                                                               # minimize energy
Per MPI rank memory allocation (min/avg/max) = 5.587 | 5.587 | 5.587 Mbytes
   Step          Temp          E_pair         E_mol          TotEng         Press          Volume    
    100000   110.48663     -13585.537      0             -13528.425     -105.6994       66779.293    
    100058   110.48663     -13641.418      0             -13584.306     -5683.7609      66779.293    
Loop time of 1.2185 on 1 procs for 58 steps with 4000 atoms

99.6% CPU use with 1 MPI tasks x 1 OpenMP threads

Minimization stats:
  Stopping criterion = linesearch alpha is zero
  Energy initial, next-to-last, final = 
     -13585.5365099221  -13641.4180677053  -13641.4180677053
  Force two-norm initial, final = 21.986287 3.4654087e-05
  Force max component initial, final = 0.78424721 1.1683166e-06
  Final line search alpha, max atom move = 0.00019950084 2.3308013e-10
  Iterations, force evaluations = 58 131

MPI task timing breakdown:
Section |  min time  |  avg time  |  max time  |%varavg| %total
---------------------------------------------------------------
Pair    | 1.2084     | 1.2084     | 1.2084     |   0.0 | 99.17
Neigh   | 0          | 0          | 0          |   0.0 |  0.00
Comm    | 0.0037317  | 0.0037317  | 0.0037317  |   0.0 |  0.31
Output  | 0          | 0          | 0          |   0.0 |  0.00
Modify  | 0          | 0          | 0          |   0.0 |  0.00
Other   |            | 0.006344   |            |       |  0.52

Nlocal:           4000 ave        4000 max        4000 min
Histogram: 1 0 0 0 0 0 0 0 0 0
Nghost:           8195 ave        8195 max        8195 min
Histogram: 1 0 0 0 0 0 0 0 0 0
Neighs:         287256 ave      287256 max      287256 min
Histogram: 1 0 0 0 0 0 0 0 0 0

Total # of neighbors = 287256
Ave neighs/atom = 71.814
Neighbor list builds = 0
Dangerous builds = 0
write_dump       all custom md/data/al_fcc/dump_0.12_relaxed.gz id type x y z
#------------------------------------------------------------------------------#
Total wall time: 0:15:36
