LAMMPS (29 Aug 2024)
OMP_NUM_THREADS environment is not set. Defaulting to 1 thread. (src/comm.cpp:98)
  using 1 OpenMP thread(s) per MPI task

#---------------------------- Atomic setup ------------------------------------#
units            metal
timestep         0.001
boundary         p p p
lattice          fcc 4.046
Lattice spacing in x,y,z = 4.046 4.046 4.046
region           sim_box block 0 10 0 10 0 10
create_box       1 sim_box
Created orthogonal box = (0 0 0) to (40.46 40.46 40.46)
  1 by 1 by 1 MPI processor grid
create_atoms     1 box
Created 4000 atoms
  using lattice units in orthogonal box = (0 0 0) to (40.46 40.46 40.46)
  create_atoms CPU = 0.001 seconds

pair_style       eam/fs                                             # interatomic potential (Lennard-Jones, EAM, etc.)
pair_coeff       * * ${potentials_dir}/al_eam.fs Al # interatomic potential parameters (ex. eam.alloy Cu_u3.eam)
pair_coeff       * * md/potentials/al_eam.fs Al 
pair_modify      tail yes
neigh_modify     delay 0                                                       # neighbor list update frequency (0 = every timestep)
mass             1 26.981539                                                 # atomic mass
variable         rnd equal round(random(0,999999,42))

#----------------------------- Equilibriation ---------------------------------#
velocity         all create 1231.56 ${rnd} dist gaussian              # initial velocities
velocity         all create 1231.56 420940 dist gaussian              
fix              f2 all nph iso 0 0 1.0        # barostat
variable         rnd equal round(random(0,999999,0))
fix              f3 all temp/csvr 1231.56 1231.56 0.1 ${rnd} # thermostat
fix              f3 all temp/csvr 1231.56 1231.56 0.1 53464 
run              10000                                           # equilibriation run
Neighbor list info ...
  update: every = 1 steps, delay = 0 steps, check = yes
  max neighbors/atom: 2000, page size: 100000
  master list distance cutoff = 8.5
  ghost atom cutoff = 8.5
  binsize = 4.25, bins = 10 10 10
  1 neighbor lists, perpetual/occasional/extra = 1 0 0
  (1) pair eam/fs, perpetual
      attributes: half, newton on
      pair build: half/bin/atomonly/newton
      stencil: half/bin/3d
      bin: standard
Per MPI rank memory allocation (min/avg/max) = 4.462 | 4.462 | 4.462 Mbytes
   Step          Temp          E_pair         E_mol          TotEng         Press          Volume    
         0   1231.56       -13642.623      0             -13006.016      9858.5407      66233.489    
     10000   1221.0758     -12385.718      0             -11754.53       1996.6635      76830.708    
Loop time of 93.0789 on 1 procs for 10000 steps with 4000 atoms

Performance: 9.282 ns/day, 2.586 hours/ns, 107.436 timesteps/s, 429.743 katom-step/s
99.6% CPU use with 1 MPI tasks x 1 OpenMP threads

MPI task timing breakdown:
Section |  min time  |  avg time  |  max time  |%varavg| %total
---------------------------------------------------------------
Pair    | 89.581     | 89.581     | 89.581     |   0.0 | 96.24
Neigh   | 1.9538     | 1.9538     | 1.9538     |   0.0 |  2.10
Comm    | 0.29224    | 0.29224    | 0.29224    |   0.0 |  0.31
Output  | 5.7027e-05 | 5.7027e-05 | 5.7027e-05 |   0.0 |  0.00
Modify  | 1.1245     | 1.1245     | 1.1245     |   0.0 |  1.21
Other   |            | 0.1275     |            |       |  0.14

Nlocal:           4000 ave        4000 max        4000 min
Histogram: 1 0 0 0 0 0 0 0 0 0
Nghost:           6921 ave        6921 max        6921 min
Histogram: 1 0 0 0 0 0 0 0 0 0
Neighs:         266904 ave      266904 max      266904 min
Histogram: 1 0 0 0 0 0 0 0 0 0

Total # of neighbors = 266904
Ave neighs/atom = 66.726
Neighbor list builds = 255
Dangerous builds = 0

#----------------------------- Run simulation ---------------------------------#
dump             d1 all custom 10000 md/data/al_fcc/dump_1.32.gz id type x y z # snapshots
run              90000
Per MPI rank memory allocation (min/avg/max) = 4.846 | 4.846 | 4.846 Mbytes
   Step          Temp          E_pair         E_mol          TotEng         Press          Volume    
     10000   1221.0758     -12385.718      0             -11754.53       1996.6635      76830.708    
    100000   1230.5255     -12366.653      0             -11730.58      -993.35041      77432.419    
Loop time of 835.533 on 1 procs for 90000 steps with 4000 atoms

Performance: 9.307 ns/day, 2.579 hours/ns, 107.716 timesteps/s, 430.863 katom-step/s
99.6% CPU use with 1 MPI tasks x 1 OpenMP threads

MPI task timing breakdown:
Section |  min time  |  avg time  |  max time  |%varavg| %total
---------------------------------------------------------------
Pair    | 803.95     | 803.95     | 803.95     |   0.0 | 96.22
Neigh   | 17.524     | 17.524     | 17.524     |   0.0 |  2.10
Comm    | 2.5529     | 2.5529     | 2.5529     |   0.0 |  0.31
Output  | 0.15589    | 0.15589    | 0.15589    |   0.0 |  0.02
Modify  | 10.157     | 10.157     | 10.157     |   0.0 |  1.22
Other   |            | 1.194      |            |       |  0.14

Nlocal:           4000 ave        4000 max        4000 min
Histogram: 1 0 0 0 0 0 0 0 0 0
Nghost:           6940 ave        6940 max        6940 min
Histogram: 1 0 0 0 0 0 0 0 0 0
Neighs:         265121 ave      265121 max      265121 min
Histogram: 1 0 0 0 0 0 0 0 0 0

Total # of neighbors = 265121
Ave neighs/atom = 66.28025
Neighbor list builds = 2340
Dangerous builds = 0
undump           d1
min_modify       line forcezero
minimize         0 0 100000 100000                                                                               # minimize energy
Per MPI rank memory allocation (min/avg/max) = 5.978 | 5.978 | 5.978 Mbytes
   Step          Temp          E_pair         E_mol          TotEng         Press          Volume    
    100000   1230.5255     -12366.653      0             -11730.58      -993.35041      77432.419    
    103114   1230.5255     -13179.278      0             -12543.206     -14950.934      77432.419    
Loop time of 49.6874 on 1 procs for 3114 steps with 4000 atoms

99.6% CPU use with 1 MPI tasks x 1 OpenMP threads

Minimization stats:
  Stopping criterion = linesearch alpha is zero
  Energy initial, next-to-last, final = 
      -12366.652761233  -13179.2783819817  -13179.2783819817
  Force two-norm initial, final = 62.226628 5.3245857e-05
  Force max component initial, final = 3.1945661 1.120513e-05
  Final line search alpha, max atom move = 0 0
  Iterations, force evaluations = 3114 5226

MPI task timing breakdown:
Section |  min time  |  avg time  |  max time  |%varavg| %total
---------------------------------------------------------------
Pair    | 48.665     | 48.665     | 48.665     |   0.0 | 97.94
Neigh   | 0.57045    | 0.57045    | 0.57045    |   0.0 |  1.15
Comm    | 0.13907    | 0.13907    | 0.13907    |   0.0 |  0.28
Output  | 0          | 0          | 0          |   0.0 |  0.00
Modify  | 0          | 0          | 0          |   0.0 |  0.00
Other   |            | 0.3129     |            |       |  0.63

Nlocal:           4000 ave        4000 max        4000 min
Histogram: 1 0 0 0 0 0 0 0 0 0
Nghost:           6662 ave        6662 max        6662 min
Histogram: 1 0 0 0 0 0 0 0 0 0
Neighs:         268919 ave      268919 max      268919 min
Histogram: 1 0 0 0 0 0 0 0 0 0

Total # of neighbors = 268919
Ave neighs/atom = 67.22975
Neighbor list builds = 79
Dangerous builds = 0
write_dump       all custom md/data/al_fcc/dump_1.32_relaxed.gz id type x y z
#------------------------------------------------------------------------------#
Total wall time: 0:16:18
