LAMMPS (29 Aug 2024)
OMP_NUM_THREADS environment is not set. Defaulting to 1 thread. (src/comm.cpp:98)
  using 1 OpenMP thread(s) per MPI task

#---------------------------- Atomic setup ------------------------------------#
units            metal
timestep         0.001
boundary         p p p
lattice          fcc 4.046
Lattice spacing in x,y,z = 4.046 4.046 4.046
region           sim_box block 0 10 0 10 0 10
create_box       1 sim_box
Created orthogonal box = (0 0 0) to (40.46 40.46 40.46)
  1 by 1 by 1 MPI processor grid
create_atoms     1 box
Created 4000 atoms
  using lattice units in orthogonal box = (0 0 0) to (40.46 40.46 40.46)
  create_atoms CPU = 0.001 seconds

pair_style       eam/fs                                             # interatomic potential (Lennard-Jones, EAM, etc.)
pair_coeff       * * ${potentials_dir}/al_eam.fs Al # interatomic potential parameters (ex. eam.alloy Cu_u3.eam)
pair_coeff       * * md/potentials/al_eam.fs Al 
pair_modify      tail yes
neigh_modify     delay 0                                                       # neighbor list update frequency (0 = every timestep)
mass             1 26.981539                                                 # atomic mass
variable         rnd equal round(random(0,999999,42))

#----------------------------- Equilibriation ---------------------------------#
velocity         all create 522.48 ${rnd} dist gaussian              # initial velocities
velocity         all create 522.48 420940 dist gaussian              
fix              f2 all nph iso 0 0 1.0        # barostat
variable         rnd equal round(random(0,999999,0))
fix              f3 all temp/csvr 522.48 522.48 0.1 ${rnd} # thermostat
fix              f3 all temp/csvr 522.48 522.48 0.1 53464 
run              10000                                           # equilibriation run
Neighbor list info ...
  update: every = 1 steps, delay = 0 steps, check = yes
  max neighbors/atom: 2000, page size: 100000
  master list distance cutoff = 8.5
  ghost atom cutoff = 8.5
  binsize = 4.25, bins = 10 10 10
  1 neighbor lists, perpetual/occasional/extra = 1 0 0
  (1) pair eam/fs, perpetual
      attributes: half, newton on
      pair build: half/bin/atomonly/newton
      stencil: half/bin/3d
      bin: standard
Per MPI rank memory allocation (min/avg/max) = 4.462 | 4.462 | 4.462 Mbytes
   Step          Temp          E_pair         E_mol          TotEng         Press          Volume    
         0   522.48        -13642.623      0             -13372.547      3947.6525      66233.489    
     10000   519.87676     -13364.131      0             -13095.4        215.58862      68517.116    
Loop time of 97.4965 on 1 procs for 10000 steps with 4000 atoms

Performance: 8.862 ns/day, 2.708 hours/ns, 102.568 timesteps/s, 410.271 katom-step/s
99.6% CPU use with 1 MPI tasks x 1 OpenMP threads

MPI task timing breakdown:
Section |  min time  |  avg time  |  max time  |%varavg| %total
---------------------------------------------------------------
Pair    | 94.852     | 94.852     | 94.852     |   0.0 | 97.29
Neigh   | 1.09       | 1.09       | 1.09       |   0.0 |  1.12
Comm    | 0.31442    | 0.31442    | 0.31442    |   0.0 |  0.32
Output  | 0.00017488 | 0.00017488 | 0.00017488 |   0.0 |  0.00
Modify  | 1.1118     | 1.1118     | 1.1118     |   0.0 |  1.14
Other   |            | 0.1279     |            |       |  0.13

Nlocal:           4000 ave        4000 max        4000 min
Histogram: 1 0 0 0 0 0 0 0 0 0
Nghost:           8141 ave        8141 max        8141 min
Histogram: 1 0 0 0 0 0 0 0 0 0
Neighs:         291494 ave      291494 max      291494 min
Histogram: 1 0 0 0 0 0 0 0 0 0

Total # of neighbors = 291494
Ave neighs/atom = 72.8735
Neighbor list builds = 134
Dangerous builds = 0

#----------------------------- Run simulation ---------------------------------#
dump             d1 all custom 10000 md/data/al_fcc/dump_0.56.gz id type x y z # snapshots
run              90000
Per MPI rank memory allocation (min/avg/max) = 4.462 | 4.462 | 4.462 Mbytes
   Step          Temp          E_pair         E_mol          TotEng         Press          Volume    
     10000   519.87676     -13364.131      0             -13095.4        215.58862      68517.116    
    100000   515.75089     -13352.678      0             -13086.081     -712.0067       68665.658    
Loop time of 876.096 on 1 procs for 90000 steps with 4000 atoms

Performance: 8.876 ns/day, 2.704 hours/ns, 102.728 timesteps/s, 410.914 katom-step/s
99.6% CPU use with 1 MPI tasks x 1 OpenMP threads

MPI task timing breakdown:
Section |  min time  |  avg time  |  max time  |%varavg| %total
---------------------------------------------------------------
Pair    | 852.64     | 852.64     | 852.64     |   0.0 | 97.32
Neigh   | 9.5019     | 9.5019     | 9.5019     |   0.0 |  1.08
Comm    | 2.7763     | 2.7763     | 2.7763     |   0.0 |  0.32
Output  | 0.14467    | 0.14467    | 0.14467    |   0.0 |  0.02
Modify  | 9.9054     | 9.9054     | 9.9054     |   0.0 |  1.13
Other   |            | 1.133      |            |       |  0.13

Nlocal:           4000 ave        4000 max        4000 min
Histogram: 1 0 0 0 0 0 0 0 0 0
Nghost:           8167 ave        8167 max        8167 min
Histogram: 1 0 0 0 0 0 0 0 0 0
Neighs:         290821 ave      290821 max      290821 min
Histogram: 1 0 0 0 0 0 0 0 0 0

Total # of neighbors = 290821
Ave neighs/atom = 72.70525
Neighbor list builds = 1169
Dangerous builds = 0
undump           d1
min_modify       line forcezero
minimize         0 0 100000 100000                                                                               # minimize energy
Per MPI rank memory allocation (min/avg/max) = 5.587 | 5.587 | 5.587 Mbytes
   Step          Temp          E_pair         E_mol          TotEng         Press          Volume    
    100000   515.75089     -13352.678      0             -13086.081     -712.0067       68665.658    
    100072   515.75089     -13622.157      0             -13355.56      -21512.476      68665.658    
Loop time of 1.39161 on 1 procs for 72 steps with 4000 atoms

99.6% CPU use with 1 MPI tasks x 1 OpenMP threads

Minimization stats:
  Stopping criterion = linesearch alpha is zero
  Energy initial, next-to-last, final = 
     -13352.6779889685  -13622.1574116257  -13622.1574116257
  Force two-norm initial, final = 46.23373 1.2850762e-05
  Force max component initial, final = 1.6176169 4.2643118e-07
  Final line search alpha, max atom move = 0 0
  Iterations, force evaluations = 72 145

MPI task timing breakdown:
Section |  min time  |  avg time  |  max time  |%varavg| %total
---------------------------------------------------------------
Pair    | 1.3798     | 1.3798     | 1.3798     |   0.0 | 99.15
Neigh   | 0          | 0          | 0          |   0.0 |  0.00
Comm    | 0.0042093  | 0.0042093  | 0.0042093  |   0.0 |  0.30
Output  | 0          | 0          | 0          |   0.0 |  0.00
Modify  | 0          | 0          | 0          |   0.0 |  0.00
Other   |            | 0.007613   |            |       |  0.55

Nlocal:           4000 ave        4000 max        4000 min
Histogram: 1 0 0 0 0 0 0 0 0 0
Nghost:           8156 ave        8156 max        8156 min
Histogram: 1 0 0 0 0 0 0 0 0 0
Neighs:         290984 ave      290984 max      290984 min
Histogram: 1 0 0 0 0 0 0 0 0 0

Total # of neighbors = 290984
Ave neighs/atom = 72.746
Neighbor list builds = 0
Dangerous builds = 0
write_dump       all custom md/data/al_fcc/dump_0.56_relaxed.gz id type x y z
#------------------------------------------------------------------------------#
Total wall time: 0:16:15
