LAMMPS (29 Aug 2024)
OMP_NUM_THREADS environment is not set. Defaulting to 1 thread. (src/comm.cpp:98)
  using 1 OpenMP thread(s) per MPI task

#---------------------------- Atomic setup ------------------------------------#
units            metal
timestep         0.001
boundary         p p p
lattice          fcc 4.046
Lattice spacing in x,y,z = 4.046 4.046 4.046
region           sim_box block 0 10 0 10 0 10
create_box       1 sim_box
Created orthogonal box = (0 0 0) to (40.46 40.46 40.46)
  1 by 1 by 1 MPI processor grid
create_atoms     1 box
Created 4000 atoms
  using lattice units in orthogonal box = (0 0 0) to (40.46 40.46 40.46)
  create_atoms CPU = 0.001 seconds

pair_style       eam/fs                                             # interatomic potential (Lennard-Jones, EAM, etc.)
pair_coeff       * * ${potentials_dir}/al_eam.fs Al # interatomic potential parameters (ex. eam.alloy Cu_u3.eam)
pair_coeff       * * md/potentials/al_eam.fs Al 
pair_modify      tail yes
neigh_modify     delay 0                                                       # neighbor list update frequency (0 = every timestep)
mass             1 26.981539                                                 # atomic mass
variable         rnd equal round(random(0,999999,42))

#----------------------------- Equilibriation ---------------------------------#
velocity         all create 335.88 ${rnd} dist gaussian              # initial velocities
velocity         all create 335.88 420940 dist gaussian              
fix              f2 all nph iso 0 0 1.0        # barostat
variable         rnd equal round(random(0,999999,0))
fix              f3 all temp/csvr 335.88 335.88 0.1 ${rnd} # thermostat
fix              f3 all temp/csvr 335.88 335.88 0.1 53464 
run              10000                                           # equilibriation run
Neighbor list info ...
  update: every = 1 steps, delay = 0 steps, check = yes
  max neighbors/atom: 2000, page size: 100000
  master list distance cutoff = 8.5
  ghost atom cutoff = 8.5
  binsize = 4.25, bins = 10 10 10
  1 neighbor lists, perpetual/occasional/extra = 1 0 0
  (1) pair eam/fs, perpetual
      attributes: half, newton on
      pair build: half/bin/atomonly/newton
      stencil: half/bin/3d
      bin: standard
Per MPI rank memory allocation (min/avg/max) = 4.462 | 4.462 | 4.462 Mbytes
   Step          Temp          E_pair         E_mol          TotEng         Press          Volume    
         0   335.88        -13642.623      0             -13469.003      2392.1556      66233.489    
     10000   325.13667     -13468.429      0             -13300.363     -797.32269      67802.905    
Loop time of 96.4967 on 1 procs for 10000 steps with 4000 atoms

Performance: 8.954 ns/day, 2.680 hours/ns, 103.631 timesteps/s, 414.522 katom-step/s
99.6% CPU use with 1 MPI tasks x 1 OpenMP threads

MPI task timing breakdown:
Section |  min time  |  avg time  |  max time  |%varavg| %total
---------------------------------------------------------------
Pair    | 94.957     | 94.957     | 94.957     |   0.0 | 98.40
Neigh   | 0.0080174  | 0.0080174  | 0.0080174  |   0.0 |  0.01
Comm    | 0.30291    | 0.30291    | 0.30291    |   0.0 |  0.31
Output  | 0.00017816 | 0.00017816 | 0.00017816 |   0.0 |  0.00
Modify  | 1.1012     | 1.1012     | 1.1012     |   0.0 |  1.14
Other   |            | 0.1277     |            |       |  0.13

Nlocal:           4000 ave        4000 max        4000 min
Histogram: 1 0 0 0 0 0 0 0 0 0
Nghost:           8195 ave        8195 max        8195 min
Histogram: 1 0 0 0 0 0 0 0 0 0
Neighs:         290594 ave      290594 max      290594 min
Histogram: 1 0 0 0 0 0 0 0 0 0

Total # of neighbors = 290594
Ave neighs/atom = 72.6485
Neighbor list builds = 1
Dangerous builds = 0

#----------------------------- Run simulation ---------------------------------#
dump             d1 all custom 10000 md/data/al_fcc/dump_0.36.gz id type x y z # snapshots
run              90000
Per MPI rank memory allocation (min/avg/max) = 4.462 | 4.462 | 4.462 Mbytes
   Step          Temp          E_pair         E_mol          TotEng         Press          Volume    
     10000   325.13667     -13468.429      0             -13300.363     -797.32269      67802.905    
    100000   331.89263     -13465.763      0             -13294.204     -663.31834      67808.984    
Loop time of 855.997 on 1 procs for 90000 steps with 4000 atoms

Performance: 9.084 ns/day, 2.642 hours/ns, 105.141 timesteps/s, 420.562 katom-step/s
99.6% CPU use with 1 MPI tasks x 1 OpenMP threads

MPI task timing breakdown:
Section |  min time  |  avg time  |  max time  |%varavg| %total
---------------------------------------------------------------
Pair    | 842.18     | 842.18     | 842.18     |   0.0 | 98.39
Neigh   | 0          | 0          | 0          |   0.0 |  0.00
Comm    | 2.5974     | 2.5974     | 2.5974     |   0.0 |  0.30
Output  | 0.14566    | 0.14566    | 0.14566    |   0.0 |  0.02
Modify  | 9.913      | 9.913      | 9.913      |   0.0 |  1.16
Other   |            | 1.164      |            |       |  0.14

Nlocal:           4000 ave        4000 max        4000 min
Histogram: 1 0 0 0 0 0 0 0 0 0
Nghost:           8195 ave        8195 max        8195 min
Histogram: 1 0 0 0 0 0 0 0 0 0
Neighs:         290932 ave      290932 max      290932 min
Histogram: 1 0 0 0 0 0 0 0 0 0

Total # of neighbors = 290932
Ave neighs/atom = 72.733
Neighbor list builds = 0
Dangerous builds = 0
undump           d1
min_modify       line forcezero
minimize         0 0 100000 100000                                                                               # minimize energy
Per MPI rank memory allocation (min/avg/max) = 5.587 | 5.587 | 5.587 Mbytes
   Step          Temp          E_pair         E_mol          TotEng         Press          Volume    
    100000   331.89263     -13465.763      0             -13294.204     -663.31834      67808.984    
    100054   331.89263     -13633.673      0             -13462.114     -14641.165      67808.984    
Loop time of 1.38644 on 1 procs for 54 steps with 4000 atoms

99.6% CPU use with 1 MPI tasks x 1 OpenMP threads

Minimization stats:
  Stopping criterion = linesearch alpha is zero
  Energy initial, next-to-last, final = 
     -13465.7627796686  -13633.6726912599  -13633.6726912599
  Force two-norm initial, final = 38.109069 0.00016016536
  Force max component initial, final = 1.2986319 5.570927e-06
  Final line search alpha, max atom move = 0.35447888 1.974776e-06
  Iterations, force evaluations = 54 147

MPI task timing breakdown:
Section |  min time  |  avg time  |  max time  |%varavg| %total
---------------------------------------------------------------
Pair    | 1.3754     | 1.3754     | 1.3754     |   0.0 | 99.20
Neigh   | 0          | 0          | 0          |   0.0 |  0.00
Comm    | 0.0042469  | 0.0042469  | 0.0042469  |   0.0 |  0.31
Output  | 0          | 0          | 0          |   0.0 |  0.00
Modify  | 0          | 0          | 0          |   0.0 |  0.00
Other   |            | 0.006802   |            |       |  0.49

Nlocal:           4000 ave        4000 max        4000 min
Histogram: 1 0 0 0 0 0 0 0 0 0
Nghost:           8195 ave        8195 max        8195 min
Histogram: 1 0 0 0 0 0 0 0 0 0
Neighs:         290762 ave      290762 max      290762 min
Histogram: 1 0 0 0 0 0 0 0 0 0

Total # of neighbors = 290762
Ave neighs/atom = 72.6905
Neighbor list builds = 0
Dangerous builds = 0
write_dump       all custom md/data/al_fcc/dump_0.36_relaxed.gz id type x y z
#------------------------------------------------------------------------------#
Total wall time: 0:15:54
