LAMMPS (29 Aug 2024)
OMP_NUM_THREADS environment is not set. Defaulting to 1 thread. (src/comm.cpp:98)
  using 1 OpenMP thread(s) per MPI task

#---------------------------- Atomic setup ------------------------------------#
units            metal
timestep         0.001
boundary         p p p
lattice          fcc 4.046
Lattice spacing in x,y,z = 4.046 4.046 4.046
region           sim_box block 0 10 0 10 0 10
create_box       1 sim_box
Created orthogonal box = (0 0 0) to (40.46 40.46 40.46)
  1 by 1 by 1 MPI processor grid
create_atoms     1 box
Created 4000 atoms
  using lattice units in orthogonal box = (0 0 0) to (40.46 40.46 40.46)
  create_atoms CPU = 0.001 seconds

pair_style       eam/fs                                             # interatomic potential (Lennard-Jones, EAM, etc.)
pair_coeff       * * ${potentials_dir}/al_eam.fs Al # interatomic potential parameters (ex. eam.alloy Cu_u3.eam)
pair_coeff       * * md/potentials/al_eam.fs Al 
pair_modify      tail yes
neigh_modify     delay 0                                                       # neighbor list update frequency (0 = every timestep)
mass             1 26.981539                                                 # atomic mass
variable         rnd equal round(random(0,999999,42))

#----------------------------- Equilibriation ---------------------------------#
velocity         all create 933.0 ${rnd} dist gaussian              # initial velocities
velocity         all create 933.0 420940 dist gaussian              
fix              f2 all nph iso 0 0 1.0        # barostat
variable         rnd equal round(random(0,999999,0))
fix              f3 all temp/csvr 933.0 933.0 0.1 ${rnd} # thermostat
fix              f3 all temp/csvr 933.0 933.0 0.1 53464 
run              10000                                           # equilibriation run
Neighbor list info ...
  update: every = 1 steps, delay = 0 steps, check = yes
  max neighbors/atom: 2000, page size: 100000
  master list distance cutoff = 8.5
  ghost atom cutoff = 8.5
  binsize = 4.25, bins = 10 10 10
  1 neighbor lists, perpetual/occasional/extra = 1 0 0
  (1) pair eam/fs, perpetual
      attributes: half, newton on
      pair build: half/bin/atomonly/newton
      stencil: half/bin/3d
      bin: standard
Per MPI rank memory allocation (min/avg/max) = 4.462 | 4.462 | 4.462 Mbytes
   Step          Temp          E_pair         E_mol          TotEng         Press          Volume    
         0   933           -13642.623      0             -13160.345      7369.7457      66233.489    
     10000   915.54993     -13058.202      0             -12584.944     -1466.0341      70929.991    
Loop time of 96.6182 on 1 procs for 10000 steps with 4000 atoms

Performance: 8.942 ns/day, 2.684 hours/ns, 103.500 timesteps/s, 414.001 katom-step/s
99.5% CPU use with 1 MPI tasks x 1 OpenMP threads

MPI task timing breakdown:
Section |  min time  |  avg time  |  max time  |%varavg| %total
---------------------------------------------------------------
Pair    | 93.287     | 93.287     | 93.287     |   0.0 | 96.55
Neigh   | 1.7781     | 1.7781     | 1.7781     |   0.0 |  1.84
Comm    | 0.30717    | 0.30717    | 0.30717    |   0.0 |  0.32
Output  | 6.4751e-05 | 6.4751e-05 | 6.4751e-05 |   0.0 |  0.00
Modify  | 1.1121     | 1.1121     | 1.1121     |   0.0 |  1.15
Other   |            | 0.1333     |            |       |  0.14

Nlocal:           4000 ave        4000 max        4000 min
Histogram: 1 0 0 0 0 0 0 0 0 0
Nghost:           7801 ave        7801 max        7801 min
Histogram: 1 0 0 0 0 0 0 0 0 0
Neighs:         288573 ave      288573 max      288573 min
Histogram: 1 0 0 0 0 0 0 0 0 0

Total # of neighbors = 288573
Ave neighs/atom = 72.14325
Neighbor list builds = 216
Dangerous builds = 0

#----------------------------- Run simulation ---------------------------------#
dump             d1 all custom 10000 md/data/al_fcc/dump_1.0.gz id type x y z # snapshots
run              90000
Per MPI rank memory allocation (min/avg/max) = 4.843 | 4.843 | 4.843 Mbytes
   Step          Temp          E_pair         E_mol          TotEng         Press          Volume    
     10000   915.54993     -13058.202      0             -12584.944     -1466.0341      70929.991    
    100000   918.05423     -13031.044      0             -12556.492     -833.45268      71103.738    
Loop time of 869.475 on 1 procs for 90000 steps with 4000 atoms

Performance: 8.943 ns/day, 2.684 hours/ns, 103.511 timesteps/s, 414.043 katom-step/s
99.5% CPU use with 1 MPI tasks x 1 OpenMP threads

MPI task timing breakdown:
Section |  min time  |  avg time  |  max time  |%varavg| %total
---------------------------------------------------------------
Pair    | 839.18     | 839.18     | 839.18     |   0.0 | 96.52
Neigh   | 16.163     | 16.163     | 16.163     |   0.0 |  1.86
Comm    | 2.7363     | 2.7363     | 2.7363     |   0.0 |  0.31
Output  | 0.14177    | 0.14177    | 0.14177    |   0.0 |  0.02
Modify  | 10.026     | 10.026     | 10.026     |   0.0 |  1.15
Other   |            | 1.226      |            |       |  0.14

Nlocal:           4000 ave        4000 max        4000 min
Histogram: 1 0 0 0 0 0 0 0 0 0
Nghost:           7720 ave        7720 max        7720 min
Histogram: 1 0 0 0 0 0 0 0 0 0
Neighs:         288442 ave      288442 max      288442 min
Histogram: 1 0 0 0 0 0 0 0 0 0

Total # of neighbors = 288442
Ave neighs/atom = 72.1105
Neighbor list builds = 1961
Dangerous builds = 0
undump           d1
min_modify       line forcezero
minimize         0 0 100000 100000                                                                               # minimize energy
Per MPI rank memory allocation (min/avg/max) = 5.968 | 5.968 | 5.968 Mbytes
   Step          Temp          E_pair         E_mol          TotEng         Press          Volume    
    100000   918.05423     -13031.044      0             -12556.492     -833.45268      71103.738    
    100076   918.05423     -13565.778      0             -13091.225     -41215.24       71103.738    
Loop time of 1.17538 on 1 procs for 76 steps with 4000 atoms

99.5% CPU use with 1 MPI tasks x 1 OpenMP threads

Minimization stats:
  Stopping criterion = linesearch alpha is zero
  Energy initial, next-to-last, final = 
     -13031.0442791903   -13565.778064827   -13565.778064827
  Force two-norm initial, final = 57.875977 0.00024534656
  Force max component initial, final = 2.149787 9.482112e-06
  Final line search alpha, max atom move = 0.48105925 4.5614577e-06
  Iterations, force evaluations = 76 152

MPI task timing breakdown:
Section |  min time  |  avg time  |  max time  |%varavg| %total
---------------------------------------------------------------
Pair    | 1.1547     | 1.1547     | 1.1547     |   0.0 | 98.24
Neigh   | 0.0078423  | 0.0078423  | 0.0078423  |   0.0 |  0.67
Comm    | 0.0046114  | 0.0046114  | 0.0046114  |   0.0 |  0.39
Output  | 0          | 0          | 0          |   0.0 |  0.00
Modify  | 0          | 0          | 0          |   0.0 |  0.00
Other   |            | 0.0082     |            |       |  0.70

Nlocal:           4000 ave        4000 max        4000 min
Histogram: 1 0 0 0 0 0 0 0 0 0
Nghost:           8155 ave        8155 max        8155 min
Histogram: 1 0 0 0 0 0 0 0 0 0
Neighs:         279793 ave      279793 max      279793 min
Histogram: 1 0 0 0 0 0 0 0 0 0

Total # of neighbors = 279793
Ave neighs/atom = 69.94825
Neighbor list builds = 1
Dangerous builds = 0
write_dump       all custom md/data/al_fcc/dump_1.0_relaxed.gz id type x y z
#------------------------------------------------------------------------------#
Total wall time: 0:16:07
