LAMMPS (29 Aug 2024)
OMP_NUM_THREADS environment is not set. Defaulting to 1 thread. (src/comm.cpp:98)
  using 1 OpenMP thread(s) per MPI task
Lattice spacing in x,y,z = 4.046 4.046 4.046
Created orthogonal box = (0 0 0) to (40.46 40.46 40.46)
  1 by 1 by 1 MPI processor grid
Created 4000 atoms
  using lattice units in orthogonal box = (0 0 0) to (40.46 40.46 40.46)
  create_atoms CPU = 0.001 seconds
Neighbor list info ...
  update: every = 1 steps, delay = 0 steps, check = yes
  max neighbors/atom: 2000, page size: 100000
  master list distance cutoff = 8.5
  ghost atom cutoff = 8.5
  binsize = 4.25, bins = 10 10 10
  1 neighbor lists, perpetual/occasional/extra = 1 0 0
  (1) pair eam/fs, perpetual
      attributes: half, newton on
      pair build: half/bin/atomonly/newton
      stencil: half/bin/3d
      bin: standard
Setting up Verlet run ...
  Unit style    : metal
  Current step  : 0
  Time step     : 0.001
Per MPI rank memory allocation (min/avg/max) = 4.462 | 4.462 | 4.462 Mbytes
   Step          Temp          E_pair         E_mol          TotEng         Press          Volume    
         0   1194.24       -13642.623      0             -13025.307      9547.4413      66233.489    
     10000   1174.0242     -12416.925      0             -11810.059      88.627957      76797.702    
Loop time of 92.1132 on 1 procs for 10000 steps with 4000 atoms

Performance: 9.380 ns/day, 2.559 hours/ns, 108.562 timesteps/s, 434.248 katom-step/s
99.5% CPU use with 1 MPI tasks x 1 OpenMP threads

MPI task timing breakdown:
Section |  min time  |  avg time  |  max time  |%varavg| %total
---------------------------------------------------------------
Pair    | 88.608     | 88.608     | 88.608     |   0.0 | 96.19
Neigh   | 1.9731     | 1.9731     | 1.9731     |   0.0 |  2.14
Comm    | 0.28833    | 0.28833    | 0.28833    |   0.0 |  0.31
Output  | 6.5192e-05 | 6.5192e-05 | 6.5192e-05 |   0.0 |  0.00
Modify  | 1.1122     | 1.1122     | 1.1122     |   0.0 |  1.21
Other   |            | 0.1315     |            |       |  0.14

Nlocal:           4000 ave        4000 max        4000 min
Histogram: 1 0 0 0 0 0 0 0 0 0
Nghost:           6920 ave        6920 max        6920 min
Histogram: 1 0 0 0 0 0 0 0 0 0
Neighs:         267252 ave      267252 max      267252 min
Histogram: 1 0 0 0 0 0 0 0 0 0

Total # of neighbors = 267252
Ave neighs/atom = 66.813
Neighbor list builds = 254
Dangerous builds = 0
Setting up Verlet run ...
  Unit style    : metal
  Current step  : 10000
  Time step     : 0.001
Per MPI rank memory allocation (min/avg/max) = 4.846 | 4.846 | 4.846 Mbytes
   Step          Temp          E_pair         E_mol          TotEng         Press          Volume    
     10000   1174.0242     -12416.925      0             -11810.059      88.627957      76797.702    
    100000   1195.2822     -12396.373      0             -11778.518      734.69015      76940.422    
Loop time of 817.983 on 1 procs for 90000 steps with 4000 atoms

Performance: 9.506 ns/day, 2.525 hours/ns, 110.027 timesteps/s, 440.107 katom-step/s
99.5% CPU use with 1 MPI tasks x 1 OpenMP threads

MPI task timing breakdown:
Section |  min time  |  avg time  |  max time  |%varavg| %total
---------------------------------------------------------------
Pair    | 786.93     | 786.93     | 786.93     |   0.0 | 96.20
Neigh   | 17.182     | 17.182     | 17.182     |   0.0 |  2.10
Comm    | 2.545      | 2.545      | 2.545      |   0.0 |  0.31
Output  | 0.15275    | 0.15275    | 0.15275    |   0.0 |  0.02
Modify  | 10.035     | 10.035     | 10.035     |   0.0 |  1.23
Other   |            | 1.14       |            |       |  0.14

Nlocal:           4000 ave        4000 max        4000 min
Histogram: 1 0 0 0 0 0 0 0 0 0
Nghost:           6980 ave        6980 max        6980 min
Histogram: 1 0 0 0 0 0 0 0 0 0
Neighs:         266733 ave      266733 max      266733 min
Histogram: 1 0 0 0 0 0 0 0 0 0

Total # of neighbors = 266733
Ave neighs/atom = 66.68325
Neighbor list builds = 2305
Dangerous builds = 0
Setting up cg style minimization ...
  Unit style    : metal
  Current step  : 100000
Per MPI rank memory allocation (min/avg/max) = 5.978 | 5.978 | 5.978 Mbytes
   Step          Temp          E_pair         E_mol          TotEng         Press          Volume    
    100000   1195.2822     -12396.373      0             -11778.518      734.69015      76940.422    
    102718   1195.2822     -13197.033      0             -12579.178     -15021.735      76940.422    
Loop time of 42.1712 on 1 procs for 2718 steps with 4000 atoms

99.5% CPU use with 1 MPI tasks x 1 OpenMP threads

Minimization stats:
  Stopping criterion = linesearch alpha is zero
  Energy initial, next-to-last, final = 
     -12396.3730784624   -13197.032958084   -13197.032958084
  Force two-norm initial, final = 62.6247 4.3306348e-05
  Force max component initial, final = 4.3954923 1.1006536e-05
  Final line search alpha, max atom move = 0.015626649 1.7199528e-07
  Iterations, force evaluations = 2718 4471

MPI task timing breakdown:
Section |  min time  |  avg time  |  max time  |%varavg| %total
---------------------------------------------------------------
Pair    | 41.277     | 41.277     | 41.277     |   0.0 | 97.88
Neigh   | 0.49312    | 0.49312    | 0.49312    |   0.0 |  1.17
Comm    | 0.12842    | 0.12842    | 0.12842    |   0.0 |  0.30
Output  | 0          | 0          | 0          |   0.0 |  0.00
Modify  | 0          | 0          | 0          |   0.0 |  0.00
Other   |            | 0.2725     |            |       |  0.65

Nlocal:           4000 ave        4000 max        4000 min
Histogram: 1 0 0 0 0 0 0 0 0 0
Nghost:           7234 ave        7234 max        7234 min
Histogram: 1 0 0 0 0 0 0 0 0 0
Neighs:         272299 ave      272299 max      272299 min
Histogram: 1 0 0 0 0 0 0 0 0 0

Total # of neighbors = 272299
Ave neighs/atom = 68.07475
Neighbor list builds = 69
Dangerous builds = 0
Total wall time: 0:15:52
