LAMMPS (29 Aug 2024)
OMP_NUM_THREADS environment is not set. Defaulting to 1 thread. (src/comm.cpp:98)
  using 1 OpenMP thread(s) per MPI task

#---------------------------- Atomic setup ------------------------------------#
units            metal
timestep         0.001
boundary         p p p
lattice          fcc 4.046
Lattice spacing in x,y,z = 4.046 4.046 4.046
region           sim_box block 0 10 0 10 0 10
create_box       1 sim_box
Created orthogonal box = (0 0 0) to (40.46 40.46 40.46)
  1 by 1 by 1 MPI processor grid
create_atoms     1 box
Created 4000 atoms
  using lattice units in orthogonal box = (0 0 0) to (40.46 40.46 40.46)
  create_atoms CPU = 0.001 seconds

pair_style       eam/fs                                             # interatomic potential (Lennard-Jones, EAM, etc.)
pair_coeff       * * ${potentials_dir}/al_eam.fs Al # interatomic potential parameters (ex. eam.alloy Cu_u3.eam)
pair_coeff       * * md/potentials/al_eam.fs Al 
pair_modify      tail yes
neigh_modify     delay 0                                                       # neighbor list update frequency (0 = every timestep)
mass             1 26.981539                                                 # atomic mass
variable         rnd equal round(random(0,999999,42))

#----------------------------- Equilibriation ---------------------------------#
velocity         all create 746.4000000000001 ${rnd} dist gaussian              # initial velocities
velocity         all create 746.4000000000001 420940 dist gaussian              
fix              f2 all nph iso 0 0 1.0        # barostat
variable         rnd equal round(random(0,999999,0))
fix              f3 all temp/csvr 746.4000000000001 746.4000000000001 0.1 ${rnd} # thermostat
fix              f3 all temp/csvr 746.4000000000001 746.4000000000001 0.1 53464 
run              10000                                           # equilibriation run
Neighbor list info ...
  update: every = 1 steps, delay = 0 steps, check = yes
  max neighbors/atom: 2000, page size: 100000
  master list distance cutoff = 8.5
  ghost atom cutoff = 8.5
  binsize = 4.25, bins = 10 10 10
  1 neighbor lists, perpetual/occasional/extra = 1 0 0
  (1) pair eam/fs, perpetual
      attributes: half, newton on
      pair build: half/bin/atomonly/newton
      stencil: half/bin/3d
      bin: standard
Per MPI rank memory allocation (min/avg/max) = 4.462 | 4.462 | 4.462 Mbytes
   Step          Temp          E_pair         E_mol          TotEng         Press          Volume    
         0   746.4         -13642.623      0             -13256.801      5814.2488      66233.489    
     10000   727.54655     -13204.796      0             -12828.719     -838.46037      69784.078    
Loop time of 97.0208 on 1 procs for 10000 steps with 4000 atoms

Performance: 8.905 ns/day, 2.695 hours/ns, 103.071 timesteps/s, 412.283 katom-step/s
99.5% CPU use with 1 MPI tasks x 1 OpenMP threads

MPI task timing breakdown:
Section |  min time  |  avg time  |  max time  |%varavg| %total
---------------------------------------------------------------
Pair    | 93.984     | 93.984     | 93.984     |   0.0 | 96.87
Neigh   | 1.4971     | 1.4971     | 1.4971     |   0.0 |  1.54
Comm    | 0.3071     | 0.3071     | 0.3071     |   0.0 |  0.32
Output  | 0.00020262 | 0.00020262 | 0.00020262 |   0.0 |  0.00
Modify  | 1.0966     | 1.0966     | 1.0966     |   0.0 |  1.13
Other   |            | 0.1359     |            |       |  0.14

Nlocal:           4000 ave        4000 max        4000 min
Histogram: 1 0 0 0 0 0 0 0 0 0
Nghost:           8020 ave        8020 max        8020 min
Histogram: 1 0 0 0 0 0 0 0 0 0
Neighs:         290333 ave      290333 max      290333 min
Histogram: 1 0 0 0 0 0 0 0 0 0

Total # of neighbors = 290333
Ave neighs/atom = 72.58325
Neighbor list builds = 183
Dangerous builds = 0

#----------------------------- Run simulation ---------------------------------#
dump             d1 all custom 10000 md/data/al_fcc/dump_0.8.gz id type x y z # snapshots
run              90000
Per MPI rank memory allocation (min/avg/max) = 4.843 | 4.843 | 4.843 Mbytes
   Step          Temp          E_pair         E_mol          TotEng         Press          Volume    
     10000   727.54655     -13204.796      0             -12828.719     -838.46037      69784.078    
    100000   735.42115     -13194.576      0             -12814.429     -508.31808      69828.131    
Loop time of 869.082 on 1 procs for 90000 steps with 4000 atoms

Performance: 8.947 ns/day, 2.682 hours/ns, 103.558 timesteps/s, 414.230 katom-step/s
99.5% CPU use with 1 MPI tasks x 1 OpenMP threads

MPI task timing breakdown:
Section |  min time  |  avg time  |  max time  |%varavg| %total
---------------------------------------------------------------
Pair    | 841.21     | 841.21     | 841.21     |   0.0 | 96.79
Neigh   | 13.749     | 13.749     | 13.749     |   0.0 |  1.58
Comm    | 2.7792     | 2.7792     | 2.7792     |   0.0 |  0.32
Output  | 0.14053    | 0.14053    | 0.14053    |   0.0 |  0.02
Modify  | 9.9234     | 9.9234     | 9.9234     |   0.0 |  1.14
Other   |            | 1.28       |            |       |  0.15

Nlocal:           4000 ave        4000 max        4000 min
Histogram: 1 0 0 0 0 0 0 0 0 0
Nghost:           7995 ave        7995 max        7995 min
Histogram: 1 0 0 0 0 0 0 0 0 0
Neighs:         290099 ave      290099 max      290099 min
Histogram: 1 0 0 0 0 0 0 0 0 0

Total # of neighbors = 290099
Ave neighs/atom = 72.52475
Neighbor list builds = 1679
Dangerous builds = 0
undump           d1
min_modify       line forcezero
minimize         0 0 100000 100000                                                                               # minimize energy
Per MPI rank memory allocation (min/avg/max) = 5.968 | 5.968 | 5.968 Mbytes
   Step          Temp          E_pair         E_mol          TotEng         Press          Volume    
    100000   735.42115     -13194.576      0             -12814.429     -508.31808      69828.131    
    100076   735.42115     -13599.576      0             -13219.429     -30731.499      69828.131    
Loop time of 1.20788 on 1 procs for 76 steps with 4000 atoms

99.6% CPU use with 1 MPI tasks x 1 OpenMP threads

Minimization stats:
  Stopping criterion = linesearch alpha is zero
  Energy initial, next-to-last, final = 
     -13194.5761031628  -13599.5764079271  -13599.5764079271
  Force two-norm initial, final = 53.805395 2.4521296e-05
  Force max component initial, final = 2.2549252 9.8599345e-07
  Final line search alpha, max atom move = 5.986224e-05 5.9023776e-11
  Iterations, force evaluations = 76 153

MPI task timing breakdown:
Section |  min time  |  avg time  |  max time  |%varavg| %total
---------------------------------------------------------------
Pair    | 1.1948     | 1.1948     | 1.1948     |   0.0 | 98.92
Neigh   | 0          | 0          | 0          |   0.0 |  0.00
Comm    | 0.0045339  | 0.0045339  | 0.0045339  |   0.0 |  0.38
Output  | 0          | 0          | 0          |   0.0 |  0.00
Modify  | 0          | 0          | 0          |   0.0 |  0.00
Other   |            | 0.008496   |            |       |  0.70

Nlocal:           4000 ave        4000 max        4000 min
Histogram: 1 0 0 0 0 0 0 0 0 0
Nghost:           8010 ave        8010 max        8010 min
Histogram: 1 0 0 0 0 0 0 0 0 0
Neighs:         290150 ave      290150 max      290150 min
Histogram: 1 0 0 0 0 0 0 0 0 0

Total # of neighbors = 290150
Ave neighs/atom = 72.5375
Neighbor list builds = 0
Dangerous builds = 0
write_dump       all custom md/data/al_fcc/dump_0.8_relaxed.gz id type x y z
#------------------------------------------------------------------------------#
Total wall time: 0:16:07
