LAMMPS (29 Aug 2024)
OMP_NUM_THREADS environment is not set. Defaulting to 1 thread. (src/comm.cpp:98)
  using 1 OpenMP thread(s) per MPI task
Lattice spacing in x,y,z = 4.046 4.046 4.046
Created orthogonal box = (0 0 0) to (40.46 40.46 40.46)
  1 by 1 by 1 MPI processor grid
Created 4000 atoms
  using lattice units in orthogonal box = (0 0 0) to (40.46 40.46 40.46)
  create_atoms CPU = 0.001 seconds
Neighbor list info ...
  update: every = 1 steps, delay = 0 steps, check = yes
  max neighbors/atom: 2000, page size: 100000
  master list distance cutoff = 8.5
  ghost atom cutoff = 8.5
  binsize = 4.25, bins = 10 10 10
  1 neighbor lists, perpetual/occasional/extra = 1 0 0
  (1) pair eam/fs, perpetual
      attributes: half, newton on
      pair build: half/bin/atomonly/newton
      stencil: half/bin/3d
      bin: standard
Setting up Verlet run ...
  Unit style    : metal
  Current step  : 0
  Time step     : 0.001
Per MPI rank memory allocation (min/avg/max) = 4.462 | 4.462 | 4.462 Mbytes
   Step          Temp          E_pair         E_mol          TotEng         Press          Volume    
         0   74.64         -13642.623      0             -13604.041      214.46         66233.489    
     10000   73.360586     -13605.591      0             -13567.671     -301.15514      66615.685    
Loop time of 86.141 on 1 procs for 10000 steps with 4000 atoms

Performance: 10.030 ns/day, 2.393 hours/ns, 116.089 timesteps/s, 464.355 katom-step/s
99.5% CPU use with 1 MPI tasks x 1 OpenMP threads

MPI task timing breakdown:
Section |  min time  |  avg time  |  max time  |%varavg| %total
---------------------------------------------------------------
Pair    | 84.636     | 84.636     | 84.636     |   0.0 | 98.25
Neigh   | 0          | 0          | 0          |   0.0 |  0.00
Comm    | 0.29241    | 0.29241    | 0.29241    |   0.0 |  0.34
Output  | 5.332e-05  | 5.332e-05  | 5.332e-05  |   0.0 |  0.00
Modify  | 1.0945     | 1.0945     | 1.0945     |   0.0 |  1.27
Other   |            | 0.1176     |            |       |  0.14

Nlocal:           4000 ave        4000 max        4000 min
Histogram: 1 0 0 0 0 0 0 0 0 0
Nghost:           8195 ave        8195 max        8195 min
Histogram: 1 0 0 0 0 0 0 0 0 0
Neighs:         280000 ave      280000 max      280000 min
Histogram: 1 0 0 0 0 0 0 0 0 0

Total # of neighbors = 280000
Ave neighs/atom = 70
Neighbor list builds = 0
Dangerous builds = 0
Setting up Verlet run ...
  Unit style    : metal
  Current step  : 10000
  Time step     : 0.001
Per MPI rank memory allocation (min/avg/max) = 4.462 | 4.462 | 4.462 Mbytes
   Step          Temp          E_pair         E_mol          TotEng         Press          Volume    
     10000   73.360586     -13605.591      0             -13567.671     -301.15514      66615.685    
    100000   74.264678     -13604.869      0             -13566.481      320.58328      66565.734    
Loop time of 837.993 on 1 procs for 90000 steps with 4000 atoms

Performance: 9.279 ns/day, 2.586 hours/ns, 107.399 timesteps/s, 429.598 katom-step/s
99.5% CPU use with 1 MPI tasks x 1 OpenMP threads

MPI task timing breakdown:
Section |  min time  |  avg time  |  max time  |%varavg| %total
---------------------------------------------------------------
Pair    | 824.31     | 824.31     | 824.31     |   0.0 | 98.37
Neigh   | 0          | 0          | 0          |   0.0 |  0.00
Comm    | 2.5629     | 2.5629     | 2.5629     |   0.0 |  0.31
Output  | 0.14527    | 0.14527    | 0.14527    |   0.0 |  0.02
Modify  | 9.9008     | 9.9008     | 9.9008     |   0.0 |  1.18
Other   |            | 1.073      |            |       |  0.13

Nlocal:           4000 ave        4000 max        4000 min
Histogram: 1 0 0 0 0 0 0 0 0 0
Nghost:           8195 ave        8195 max        8195 min
Histogram: 1 0 0 0 0 0 0 0 0 0
Neighs:         285521 ave      285521 max      285521 min
Histogram: 1 0 0 0 0 0 0 0 0 0

Total # of neighbors = 285521
Ave neighs/atom = 71.38025
Neighbor list builds = 0
Dangerous builds = 0
Setting up cg style minimization ...
  Unit style    : metal
  Current step  : 100000
Per MPI rank memory allocation (min/avg/max) = 5.587 | 5.587 | 5.587 Mbytes
   Step          Temp          E_pair         E_mol          TotEng         Press          Volume    
    100000   74.264678     -13604.869      0             -13566.481      320.58328      66565.734    
    100056   74.264678     -13642.139      0             -13603.751     -3610.4769      66565.734    
Loop time of 1.1474 on 1 procs for 56 steps with 4000 atoms

99.6% CPU use with 1 MPI tasks x 1 OpenMP threads

Minimization stats:
  Stopping criterion = linesearch alpha is zero
  Energy initial, next-to-last, final = 
     -13604.8692317715  -13642.1393981162  -13642.1393981162
  Force two-norm initial, final = 17.794819 2.037857e-05
  Force max component initial, final = 0.71490192 6.6810986e-07
  Final line search alpha, max atom move = 0.00037922055 2.5336099e-10
  Iterations, force evaluations = 56 124

MPI task timing breakdown:
Section |  min time  |  avg time  |  max time  |%varavg| %total
---------------------------------------------------------------
Pair    | 1.1377     | 1.1377     | 1.1377     |   0.0 | 99.15
Neigh   | 0          | 0          | 0          |   0.0 |  0.00
Comm    | 0.00354    | 0.00354    | 0.00354    |   0.0 |  0.31
Output  | 0          | 0          | 0          |   0.0 |  0.00
Modify  | 0          | 0          | 0          |   0.0 |  0.00
Other   |            | 0.006187   |            |       |  0.54

Nlocal:           4000 ave        4000 max        4000 min
Histogram: 1 0 0 0 0 0 0 0 0 0
Nghost:           8195 ave        8195 max        8195 min
Histogram: 1 0 0 0 0 0 0 0 0 0
Neighs:         285688 ave      285688 max      285688 min
Histogram: 1 0 0 0 0 0 0 0 0 0

Total # of neighbors = 285688
Ave neighs/atom = 71.422
Neighbor list builds = 0
Dangerous builds = 0
Total wall time: 0:15:25
