LAMMPS (29 Aug 2024)
OMP_NUM_THREADS environment is not set. Defaulting to 1 thread. (src/comm.cpp:98)
  using 1 OpenMP thread(s) per MPI task
Lattice spacing in x,y,z = 5.26 5.26 5.26
Created orthogonal box = (0 0 0) to (52.6 52.6 52.6)
  1 by 1 by 1 MPI processor grid
Created 4000 atoms
  using lattice units in orthogonal box = (0 0 0) to (52.6 52.6 52.6)
  create_atoms CPU = 0.001 seconds
ERROR: Expected floating point parameter instead of 'md/potentials/0.0103' in input script or data file (src/pair_lj_cut.cpp:451)
Last command: pair_coeff       * * ${potentials_dir}/0.0103 3.4 Ar # interatomic potential parameters (ex. eam.alloy Cu_u3.eam)
