LAMMPS (29 Aug 2024)
OMP_NUM_THREADS environment is not set. Defaulting to 1 thread. (src/comm.cpp:98)
  using 1 OpenMP thread(s) per MPI task

#---------------------------- Atomic setup ------------------------------------#
units            metal
timestep         0.001
boundary         p p p
lattice          bcc 2.856
Lattice spacing in x,y,z = 2.856 2.856 2.856
region           sim_box block 0 10 0 10 0 10
create_box       1 sim_box
Created orthogonal box = (0 0 0) to (28.56 28.56 28.56)
  1 by 1 by 1 MPI processor grid
create_atoms     1 box
Created 2000 atoms
  using lattice units in orthogonal box = (0 0 0) to (28.56 28.56 28.56)
  create_atoms CPU = 0.000 seconds

pair_style       eam/fs                                             # interatomic potential (Lennard-Jones, EAM, etc.)
pair_coeff       * * ${potentials_dir}/fe_eam.fs Fe # interatomic potential parameters (ex. eam.alloy Cu_u3.eam)
pair_coeff       * * md/potentials/fe_eam.fs Fe 
pair_modify      tail yes
neigh_modify     delay 0                                                       # neighbor list update frequency (0 = every timestep)
mass             1 55.845                                                 # atomic mass
variable         rnd equal round(random(0,999999,42))

#----------------------------- Equilibriation ---------------------------------#
velocity         all create 1086.6 ${rnd} dist gaussian              # initial velocities
velocity         all create 1086.6 420940 dist gaussian              
fix              f2 all nph iso 0 0 1.0        # barostat
variable         rnd equal round(random(0,999999,0))
fix              f3 all temp/csvr 1086.6 1086.6 0.1 ${rnd} # thermostat
fix              f3 all temp/csvr 1086.6 1086.6 0.1 53464 
run              10000                                           # equilibriation run
Neighbor list info ...
  update: every = 1 steps, delay = 0 steps, check = yes
  max neighbors/atom: 2000, page size: 100000
  master list distance cutoff = 7.3
  ghost atom cutoff = 7.3
  binsize = 3.65, bins = 8 8 8
  1 neighbor lists, perpetual/occasional/extra = 1 0 0
  (1) pair eam/fs, perpetual
      attributes: half, newton on
      pair build: half/bin/atomonly/newton
      stencil: half/bin/3d
      bin: standard
Per MPI rank memory allocation (min/avg/max) = 3.94 | 3.94 | 3.94 Mbytes
   Step          Temp          E_pair         E_mol          TotEng         Press          Volume    
         0   1086.6        -8244.8637      0             -7964.096       11612.539      23295.638    
     10000   1069.6869     -7939.6214      0             -7663.2239     -2465.6277      24046.217    
Loop time of 42.0714 on 1 procs for 10000 steps with 2000 atoms

Performance: 20.537 ns/day, 1.169 hours/ns, 237.691 timesteps/s, 475.382 katom-step/s
99.6% CPU use with 1 MPI tasks x 1 OpenMP threads

MPI task timing breakdown:
Section |  min time  |  avg time  |  max time  |%varavg| %total
---------------------------------------------------------------
Pair    | 40.808     | 40.808     | 40.808     |   0.0 | 97.00
Neigh   | 0.45875    | 0.45875    | 0.45875    |   0.0 |  1.09
Comm    | 0.18464    | 0.18464    | 0.18464    |   0.0 |  0.44
Output  | 3.9754e-05 | 3.9754e-05 | 3.9754e-05 |   0.0 |  0.00
Modify  | 0.5584     | 0.5584     | 0.5584     |   0.0 |  1.33
Other   |            | 0.06109    |            |       |  0.15

Nlocal:           2000 ave        2000 max        2000 min
Histogram: 1 0 0 0 0 0 0 0 0 0
Nghost:           5060 ave        5060 max        5060 min
Histogram: 1 0 0 0 0 0 0 0 0 0
Neighs:         138219 ave      138219 max      138219 min
Histogram: 1 0 0 0 0 0 0 0 0 0

Total # of neighbors = 138219
Ave neighs/atom = 69.1095
Neighbor list builds = 111
Dangerous builds = 0

#----------------------------- Run simulation ---------------------------------#
dump             d1 all custom 10000 md/data/fe_bcc/dump_0.6.gz id type x y z # snapshots
run              90000
Per MPI rank memory allocation (min/avg/max) = 3.94 | 3.94 | 3.94 Mbytes
   Step          Temp          E_pair         E_mol          TotEng         Press          Volume    
     10000   1069.6869     -7939.6214      0             -7663.2239     -2465.6277      24046.217    
    100000   1099.7551     -7932.4155      0             -7648.2487     -613.40697      24044.004    
Loop time of 382.282 on 1 procs for 90000 steps with 2000 atoms

Performance: 20.341 ns/day, 1.180 hours/ns, 235.428 timesteps/s, 470.857 katom-step/s
99.6% CPU use with 1 MPI tasks x 1 OpenMP threads

MPI task timing breakdown:
Section |  min time  |  avg time  |  max time  |%varavg| %total
---------------------------------------------------------------
Pair    | 370.75     | 370.75     | 370.75     |   0.0 | 96.98
Neigh   | 4.2694     | 4.2694     | 4.2694     |   0.0 |  1.12
Comm    | 1.664      | 1.664      | 1.664      |   0.0 |  0.44
Output  | 0.072118   | 0.072118   | 0.072118   |   0.0 |  0.02
Modify  | 5.0092     | 5.0092     | 5.0092     |   0.0 |  1.31
Other   |            | 0.5212     |            |       |  0.14

Nlocal:           2000 ave        2000 max        2000 min
Histogram: 1 0 0 0 0 0 0 0 0 0
Nghost:           5063 ave        5063 max        5063 min
Histogram: 1 0 0 0 0 0 0 0 0 0
Neighs:         137670 ave      137670 max      137670 min
Histogram: 1 0 0 0 0 0 0 0 0 0

Total # of neighbors = 137670
Ave neighs/atom = 68.835
Neighbor list builds = 1030
Dangerous builds = 0
undump           d1
min_modify       line forcezero
minimize         0 0 100000 100000                                                                               # minimize energy
Per MPI rank memory allocation (min/avg/max) = 5.065 | 5.065 | 5.065 Mbytes
   Step          Temp          E_pair         E_mol          TotEng         Press          Volume    
    100000   1099.7551     -7932.4155      0             -7648.2487     -613.40697      24044.004    
    100054   1099.7551     -8231.2922      0             -7947.1254     -43510.301      24044.004    
Loop time of 0.442615 on 1 procs for 54 steps with 2000 atoms

99.6% CPU use with 1 MPI tasks x 1 OpenMP threads

Minimization stats:
  Stopping criterion = linesearch alpha is zero
  Energy initial, next-to-last, final = 
     -7932.41552850113  -8231.29222463508  -8231.29222463508
  Force two-norm initial, final = 69.797391 2.2853818e-05
  Force max component initial, final = 3.9304297 1.2010776e-06
  Final line search alpha, max atom move = 1.2382168e-05 1.4871944e-11
  Iterations, force evaluations = 54 111

MPI task timing breakdown:
Section |  min time  |  avg time  |  max time  |%varavg| %total
---------------------------------------------------------------
Pair    | 0.43769    | 0.43769    | 0.43769    |   0.0 | 98.89
Neigh   | 0          | 0          | 0          |   0.0 |  0.00
Comm    | 0.0020095  | 0.0020095  | 0.0020095  |   0.0 |  0.45
Output  | 0          | 0          | 0          |   0.0 |  0.00
Modify  | 0          | 0          | 0          |   0.0 |  0.00
Other   |            | 0.002911   |            |       |  0.66

Nlocal:           2000 ave        2000 max        2000 min
Histogram: 1 0 0 0 0 0 0 0 0 0
Nghost:           5066 ave        5066 max        5066 min
Histogram: 1 0 0 0 0 0 0 0 0 0
Neighs:         137709 ave      137709 max      137709 min
Histogram: 1 0 0 0 0 0 0 0 0 0

Total # of neighbors = 137709
Ave neighs/atom = 68.8545
Neighbor list builds = 0
Dangerous builds = 0
write_dump       all custom md/data/fe_bcc/dump_0.6_relaxed.gz id type x y z
#------------------------------------------------------------------------------#
Total wall time: 0:07:04
