LAMMPS (29 Aug 2024)
OMP_NUM_THREADS environment is not set. Defaulting to 1 thread. (src/comm.cpp:98)
  using 1 OpenMP thread(s) per MPI task

#---------------------------- Atomic setup ------------------------------------#
units            metal
timestep         0.001
boundary         p p p
lattice          bcc 2.856
Lattice spacing in x,y,z = 2.856 2.856 2.856
region           sim_box block 0 10 0 10 0 10
create_box       1 sim_box
Created orthogonal box = (0 0 0) to (28.56 28.56 28.56)
  1 by 1 by 1 MPI processor grid
create_atoms     1 box
Created 2000 atoms
  using lattice units in orthogonal box = (0 0 0) to (28.56 28.56 28.56)
  create_atoms CPU = 0.000 seconds

pair_style       eam/fs                                             # interatomic potential (Lennard-Jones, EAM, etc.)
pair_coeff       * * ${potentials_dir}/fe_eam.fs Fe # interatomic potential parameters (ex. eam.alloy Cu_u3.eam)
pair_coeff       * * md/potentials/fe_eam.fs Fe 
pair_modify      tail yes
neigh_modify     delay 0                                                       # neighbor list update frequency (0 = every timestep)
mass             1 55.845                                                 # atomic mass
variable         rnd equal round(random(0,999999,42))

#----------------------------- Equilibriation ---------------------------------#
velocity         all create 434.64 ${rnd} dist gaussian              # initial velocities
velocity         all create 434.64 420940 dist gaussian              
fix              f2 all nph iso 0 0 1.0        # barostat
variable         rnd equal round(random(0,999999,0))
fix              f3 all temp/csvr 434.64 434.64 0.1 ${rnd} # thermostat
fix              f3 all temp/csvr 434.64 434.64 0.1 53464 
run              10000                                           # equilibriation run
Neighbor list info ...
  update: every = 1 steps, delay = 0 steps, check = yes
  max neighbors/atom: 2000, page size: 100000
  master list distance cutoff = 7.3
  ghost atom cutoff = 7.3
  binsize = 3.65, bins = 8 8 8
  1 neighbor lists, perpetual/occasional/extra = 1 0 0
  (1) pair eam/fs, perpetual
      attributes: half, newton on
      pair build: half/bin/atomonly/newton
      stencil: half/bin/3d
      bin: standard
Per MPI rank memory allocation (min/avg/max) = 3.94 | 3.94 | 3.94 Mbytes
   Step          Temp          E_pair         E_mol          TotEng         Press          Volume    
         0   434.64        -8244.8637      0             -8132.5566      3888.5278      23295.638    
     10000   419.53879     -8125.9498      0             -8017.5448     -4.7082738      23441.466    
Loop time of 31.8718 on 1 procs for 10000 steps with 2000 atoms

Performance: 27.109 ns/day, 0.885 hours/ns, 313.757 timesteps/s, 627.514 katom-step/s
99.5% CPU use with 1 MPI tasks x 1 OpenMP threads

MPI task timing breakdown:
Section |  min time  |  avg time  |  max time  |%varavg| %total
---------------------------------------------------------------
Pair    | 31.071     | 31.071     | 31.071     |   0.0 | 97.49
Neigh   | 0          | 0          | 0          |   0.0 |  0.00
Comm    | 0.18701    | 0.18701    | 0.18701    |   0.0 |  0.59
Output  | 3.5637e-05 | 3.5637e-05 | 3.5637e-05 |   0.0 |  0.00
Modify  | 0.55588    | 0.55588    | 0.55588    |   0.0 |  1.74
Other   |            | 0.05791    |            |       |  0.18

Nlocal:           2000 ave        2000 max        2000 min
Histogram: 1 0 0 0 0 0 0 0 0 0
Nghost:           5471 ave        5471 max        5471 min
Histogram: 1 0 0 0 0 0 0 0 0 0
Neighs:         136000 ave      136000 max      136000 min
Histogram: 1 0 0 0 0 0 0 0 0 0

Total # of neighbors = 136000
Ave neighs/atom = 68
Neighbor list builds = 0
Dangerous builds = 0

#----------------------------- Run simulation ---------------------------------#
dump             d1 all custom 10000 md/data/fe_bcc/dump_0.24.gz id type x y z # snapshots
run              90000
Per MPI rank memory allocation (min/avg/max) = 3.94 | 3.94 | 3.94 Mbytes
   Step          Temp          E_pair         E_mol          TotEng         Press          Volume    
     10000   419.53879     -8125.9498      0             -8017.5448     -4.7082738      23441.466    
    100000   429.58784     -8123.7517      0             -8012.7501     -2400.7705      23489.735    
Loop time of 353.34 on 1 procs for 90000 steps with 2000 atoms

Performance: 22.007 ns/day, 1.091 hours/ns, 254.712 timesteps/s, 509.424 katom-step/s
99.6% CPU use with 1 MPI tasks x 1 OpenMP threads

MPI task timing breakdown:
Section |  min time  |  avg time  |  max time  |%varavg| %total
---------------------------------------------------------------
Pair    | 346.07     | 346.07     | 346.07     |   0.0 | 97.94
Neigh   | 0          | 0          | 0          |   0.0 |  0.00
Comm    | 1.6603     | 1.6603     | 1.6603     |   0.0 |  0.47
Output  | 0.073305   | 0.073305   | 0.073305   |   0.0 |  0.02
Modify  | 5.0015     | 5.0015     | 5.0015     |   0.0 |  1.42
Other   |            | 0.5304     |            |       |  0.15

Nlocal:           2000 ave        2000 max        2000 min
Histogram: 1 0 0 0 0 0 0 0 0 0
Nghost:           5380 ave        5380 max        5380 min
Histogram: 1 0 0 0 0 0 0 0 0 0
Neighs:         139719 ave      139719 max      139719 min
Histogram: 1 0 0 0 0 0 0 0 0 0

Total # of neighbors = 139719
Ave neighs/atom = 69.8595
Neighbor list builds = 0
Dangerous builds = 0
undump           d1
min_modify       line forcezero
minimize         0 0 100000 100000                                                                               # minimize energy
Per MPI rank memory allocation (min/avg/max) = 5.065 | 5.065 | 5.065 Mbytes
   Step          Temp          E_pair         E_mol          TotEng         Press          Volume    
    100000   429.58784     -8123.7517      0             -8012.7501     -2400.7705      23489.735    
    100047   429.58784     -8243.8207      0             -8132.819      -10861.029      23489.735    
Loop time of 0.39395 on 1 procs for 47 steps with 2000 atoms

99.6% CPU use with 1 MPI tasks x 1 OpenMP threads

Minimization stats:
  Stopping criterion = linesearch alpha is zero
  Energy initial, next-to-last, final = 
     -8123.75173358278  -8243.82067968538  -8243.82067968538
  Force two-norm initial, final = 44.965908 5.0088593e-05
  Force max component initial, final = 2.5636423 2.696529e-06
  Final line search alpha, max atom move = 0.013528097 3.6478905e-08
  Iterations, force evaluations = 47 103

MPI task timing breakdown:
Section |  min time  |  avg time  |  max time  |%varavg| %total
---------------------------------------------------------------
Pair    | 0.3893     | 0.3893     | 0.3893     |   0.0 | 98.82
Neigh   | 0          | 0          | 0          |   0.0 |  0.00
Comm    | 0.0019746  | 0.0019746  | 0.0019746  |   0.0 |  0.50
Output  | 0          | 0          | 0          |   0.0 |  0.00
Modify  | 0          | 0          | 0          |   0.0 |  0.00
Other   |            | 0.00268    |            |       |  0.68

Nlocal:           2000 ave        2000 max        2000 min
Histogram: 1 0 0 0 0 0 0 0 0 0
Nghost:           5399 ave        5399 max        5399 min
Histogram: 1 0 0 0 0 0 0 0 0 0
Neighs:         139306 ave      139306 max      139306 min
Histogram: 1 0 0 0 0 0 0 0 0 0

Total # of neighbors = 139306
Ave neighs/atom = 69.653
Neighbor list builds = 0
Dangerous builds = 0
write_dump       all custom md/data/fe_bcc/dump_0.24_relaxed.gz id type x y z
#------------------------------------------------------------------------------#
Total wall time: 0:06:25
