LAMMPS (29 Aug 2024)
OMP_NUM_THREADS environment is not set. Defaulting to 1 thread. (src/comm.cpp:98)
  using 1 OpenMP thread(s) per MPI task
Lattice spacing in x,y,z = 2.856 2.856 2.856
Created orthogonal box = (0 0 0) to (28.56 28.56 28.56)
  1 by 1 by 1 MPI processor grid
Created 2000 atoms
  using lattice units in orthogonal box = (0 0 0) to (28.56 28.56 28.56)
  create_atoms CPU = 0.000 seconds
Neighbor list info ...
  update: every = 1 steps, delay = 0 steps, check = yes
  max neighbors/atom: 2000, page size: 100000
  master list distance cutoff = 7.3
  ghost atom cutoff = 7.3
  binsize = 3.65, bins = 8 8 8
  1 neighbor lists, perpetual/occasional/extra = 1 0 0
  (1) pair eam/fs, perpetual
      attributes: half, newton on
      pair build: half/bin/atomonly/newton
      stencil: half/bin/3d
      bin: standard
Setting up Verlet run ...
  Unit style    : metal
  Current step  : 0
  Time step     : 0.001
Per MPI rank memory allocation (min/avg/max) = 3.94 | 3.94 | 3.94 Mbytes
   Step          Temp          E_pair         E_mol          TotEng         Press          Volume    
         0   1303.92       -8244.8637      0             -7907.9425      14187.209      23295.638    
     10000   1286.1144     -7867.5476      0             -7535.2272     -1190.1911      24268.002    
Loop time of 42.2112 on 1 procs for 10000 steps with 2000 atoms

Performance: 20.468 ns/day, 1.173 hours/ns, 236.904 timesteps/s, 473.808 katom-step/s
99.5% CPU use with 1 MPI tasks x 1 OpenMP threads

MPI task timing breakdown:
Section |  min time  |  avg time  |  max time  |%varavg| %total
---------------------------------------------------------------
Pair    | 40.803     | 40.803     | 40.803     |   0.0 | 96.66
Neigh   | 0.60867    | 0.60867    | 0.60867    |   0.0 |  1.44
Comm    | 0.18284    | 0.18284    | 0.18284    |   0.0 |  0.43
Output  | 0.00014321 | 0.00014321 | 0.00014321 |   0.0 |  0.00
Modify  | 0.557      | 0.557      | 0.557      |   0.0 |  1.32
Other   |            | 0.0595     |            |       |  0.14

Nlocal:           2000 ave        2000 max        2000 min
Histogram: 1 0 0 0 0 0 0 0 0 0
Nghost:           4981 ave        4981 max        4981 min
Histogram: 1 0 0 0 0 0 0 0 0 0
Neighs:         136773 ave      136773 max      136773 min
Histogram: 1 0 0 0 0 0 0 0 0 0

Total # of neighbors = 136773
Ave neighs/atom = 68.3865
Neighbor list builds = 148
Dangerous builds = 0
Setting up Verlet run ...
  Unit style    : metal
  Current step  : 10000
  Time step     : 0.001
Per MPI rank memory allocation (min/avg/max) = 3.94 | 3.94 | 3.94 Mbytes
   Step          Temp          E_pair         E_mol          TotEng         Press          Volume    
     10000   1286.1144     -7867.5476      0             -7535.2272     -1190.1911      24268.002    
    100000   1306.7319     -7854.6939      0             -7517.0461     -2103.4785      24323.288    
Loop time of 380.865 on 1 procs for 90000 steps with 2000 atoms

Performance: 20.417 ns/day, 1.176 hours/ns, 236.304 timesteps/s, 472.609 katom-step/s
99.5% CPU use with 1 MPI tasks x 1 OpenMP threads

MPI task timing breakdown:
Section |  min time  |  avg time  |  max time  |%varavg| %total
---------------------------------------------------------------
Pair    | 367.97     | 367.97     | 367.97     |   0.0 | 96.61
Neigh   | 5.6369     | 5.6369     | 5.6369     |   0.0 |  1.48
Comm    | 1.6458     | 1.6458     | 1.6458     |   0.0 |  0.43
Output  | 0.072481   | 0.072481   | 0.072481   |   0.0 |  0.02
Modify  | 5.0011     | 5.0011     | 5.0011     |   0.0 |  1.31
Other   |            | 0.5385     |            |       |  0.14

Nlocal:           2000 ave        2000 max        2000 min
Histogram: 1 0 0 0 0 0 0 0 0 0
Nghost:           4865 ave        4865 max        4865 min
Histogram: 1 0 0 0 0 0 0 0 0 0
Neighs:         136309 ave      136309 max      136309 min
Histogram: 1 0 0 0 0 0 0 0 0 0

Total # of neighbors = 136309
Ave neighs/atom = 68.1545
Neighbor list builds = 1365
Dangerous builds = 0
Setting up cg style minimization ...
  Unit style    : metal
  Current step  : 100000
Per MPI rank memory allocation (min/avg/max) = 5.065 | 5.065 | 5.065 Mbytes
   Step          Temp          E_pair         E_mol          TotEng         Press          Volume    
    100000   1306.7319     -7854.6939      0             -7517.0461     -2103.4785      24323.288    
    100060   1306.7319     -8219.8367      0             -7882.1888     -60192.245      24323.288    
Loop time of 0.452694 on 1 procs for 60 steps with 2000 atoms

99.5% CPU use with 1 MPI tasks x 1 OpenMP threads

Minimization stats:
  Stopping criterion = linesearch alpha is zero
  Energy initial, next-to-last, final = 
     -7854.69389438978  -8219.83665120144  -8219.83665120144
  Force two-norm initial, final = 74.040855 1.1177096e-05
  Force max component initial, final = 4.7680794 7.0247516e-07
  Final line search alpha, max atom move = 1.4365811e-05 1.0091625e-11
  Iterations, force evaluations = 60 112

MPI task timing breakdown:
Section |  min time  |  avg time  |  max time  |%varavg| %total
---------------------------------------------------------------
Pair    | 0.4475     | 0.4475     | 0.4475     |   0.0 | 98.85
Neigh   | 0          | 0          | 0          |   0.0 |  0.00
Comm    | 0.0019887  | 0.0019887  | 0.0019887  |   0.0 |  0.44
Output  | 0          | 0          | 0          |   0.0 |  0.00
Modify  | 0          | 0          | 0          |   0.0 |  0.00
Other   |            | 0.003201   |            |       |  0.71

Nlocal:           2000 ave        2000 max        2000 min
Histogram: 1 0 0 0 0 0 0 0 0 0
Nghost:           4867 ave        4867 max        4867 min
Histogram: 1 0 0 0 0 0 0 0 0 0
Neighs:         136380 ave      136380 max      136380 min
Histogram: 1 0 0 0 0 0 0 0 0 0

Total # of neighbors = 136380
Ave neighs/atom = 68.19
Neighbor list builds = 0
Dangerous builds = 0
Total wall time: 0:07:03
