LAMMPS (29 Aug 2024)
OMP_NUM_THREADS environment is not set. Defaulting to 1 thread. (src/comm.cpp:98)
  using 1 OpenMP thread(s) per MPI task

#---------------------------- Atomic setup ------------------------------------#
units            metal
timestep         0.001
boundary         p p p
lattice          bcc 2.856
Lattice spacing in x,y,z = 2.856 2.856 2.856
region           sim_box block 0 10 0 10 0 10
create_box       1 sim_box
Created orthogonal box = (0 0 0) to (28.56 28.56 28.56)
  1 by 1 by 1 MPI processor grid
create_atoms     1 box
Created 2000 atoms
  using lattice units in orthogonal box = (0 0 0) to (28.56 28.56 28.56)
  create_atoms CPU = 0.000 seconds

pair_style       eam/fs                                             # interatomic potential (Lennard-Jones, EAM, etc.)
pair_coeff       * * ${potentials_dir}/fe_eam.fs Fe # interatomic potential parameters (ex. eam.alloy Cu_u3.eam)
pair_coeff       * * md/potentials/fe_eam.fs Fe 
pair_modify      tail yes
neigh_modify     delay 0                                                       # neighbor list update frequency (0 = every timestep)
mass             1 55.845                                                 # atomic mass
variable         rnd equal round(random(0,999999,42))

#----------------------------- Equilibriation ---------------------------------#
velocity         all create 1883.44 ${rnd} dist gaussian              # initial velocities
velocity         all create 1883.44 420940 dist gaussian              
fix              f2 all nph iso 0 0 1.0        # barostat
variable         rnd equal round(random(0,999999,0))
fix              f3 all temp/csvr 1883.44 1883.44 0.1 ${rnd} # thermostat
fix              f3 all temp/csvr 1883.44 1883.44 0.1 53464 
run              10000                                           # equilibriation run
Neighbor list info ...
  update: every = 1 steps, delay = 0 steps, check = yes
  max neighbors/atom: 2000, page size: 100000
  master list distance cutoff = 7.3
  ghost atom cutoff = 7.3
  binsize = 3.65, bins = 8 8 8
  1 neighbor lists, perpetual/occasional/extra = 1 0 0
  (1) pair eam/fs, perpetual
      attributes: half, newton on
      pair build: half/bin/atomonly/newton
      stencil: half/bin/3d
      bin: standard
Per MPI rank memory allocation (min/avg/max) = 3.94 | 3.94 | 3.94 Mbytes
   Step          Temp          E_pair         E_mol          TotEng         Press          Volume    
         0   1883.44       -8244.8637      0             -7758.1997      21052.996      23295.638    
     10000   1862.8501     -7647.2205      0             -7165.8767     -137.06744      25110.318    
Loop time of 41.3573 on 1 procs for 10000 steps with 2000 atoms

Performance: 20.891 ns/day, 1.149 hours/ns, 241.796 timesteps/s, 483.591 katom-step/s
99.5% CPU use with 1 MPI tasks x 1 OpenMP threads

MPI task timing breakdown:
Section |  min time  |  avg time  |  max time  |%varavg| %total
---------------------------------------------------------------
Pair    | 39.837     | 39.837     | 39.837     |   0.0 | 96.32
Neigh   | 0.71788    | 0.71788    | 0.71788    |   0.0 |  1.74
Comm    | 0.18361    | 0.18361    | 0.18361    |   0.0 |  0.44
Output  | 0.00015391 | 0.00015391 | 0.00015391 |   0.0 |  0.00
Modify  | 0.5578     | 0.5578     | 0.5578     |   0.0 |  1.35
Other   |            | 0.06082    |            |       |  0.15

Nlocal:           2000 ave        2000 max        2000 min
Histogram: 1 0 0 0 0 0 0 0 0 0
Nghost:           4690 ave        4690 max        4690 min
Histogram: 1 0 0 0 0 0 0 0 0 0
Neighs:         132195 ave      132195 max      132195 min
Histogram: 1 0 0 0 0 0 0 0 0 0

Total # of neighbors = 132195
Ave neighs/atom = 66.0975
Neighbor list builds = 199
Dangerous builds = 0

#----------------------------- Run simulation ---------------------------------#
dump             d1 all custom 10000 md/data/fe_bcc/dump_1.04.gz id type x y z # snapshots
run              90000
Per MPI rank memory allocation (min/avg/max) = 3.947 | 3.947 | 3.947 Mbytes
   Step          Temp          E_pair         E_mol          TotEng         Press          Volume    
     10000   1862.8501     -7647.2205      0             -7165.8767     -137.06744      25110.318    
    100000   1853.6311     -7598.3553      0             -7119.3937     -7141.5707      25443.644    
Loop time of 371.034 on 1 procs for 90000 steps with 2000 atoms

Performance: 20.958 ns/day, 1.145 hours/ns, 242.566 timesteps/s, 485.131 katom-step/s
99.5% CPU use with 1 MPI tasks x 1 OpenMP threads

MPI task timing breakdown:
Section |  min time  |  avg time  |  max time  |%varavg| %total
---------------------------------------------------------------
Pair    | 357.24     | 357.24     | 357.24     |   0.0 | 96.28
Neigh   | 6.5421     | 6.5421     | 6.5421     |   0.0 |  1.76
Comm    | 1.6259     | 1.6259     | 1.6259     |   0.0 |  0.44
Output  | 0.071074   | 0.071074   | 0.071074   |   0.0 |  0.02
Modify  | 5.0169     | 5.0169     | 5.0169     |   0.0 |  1.35
Other   |            | 0.5387     |            |       |  0.15

Nlocal:           2000 ave        2000 max        2000 min
Histogram: 1 0 0 0 0 0 0 0 0 0
Nghost:           4626 ave        4626 max        4626 min
Histogram: 1 0 0 0 0 0 0 0 0 0
Neighs:         130378 ave      130378 max      130378 min
Histogram: 1 0 0 0 0 0 0 0 0 0

Total # of neighbors = 130378
Ave neighs/atom = 65.189
Neighbor list builds = 1823
Dangerous builds = 0
undump           d1
min_modify       line forcezero
minimize         0 0 100000 100000                                                                               # minimize energy
Per MPI rank memory allocation (min/avg/max) = 5.072 | 5.072 | 5.072 Mbytes
   Step          Temp          E_pair         E_mol          TotEng         Press          Volume    
    100000   1853.6311     -7598.3553      0             -7119.3937     -7141.5707      25443.644    
    100077   1853.6311     -8145.053       0             -7666.0914     -114677.23      25443.644    
Loop time of 0.549596 on 1 procs for 77 steps with 2000 atoms

99.6% CPU use with 1 MPI tasks x 1 OpenMP threads

Minimization stats:
  Stopping criterion = linesearch alpha is zero
  Energy initial, next-to-last, final = 
     -7598.35534667553  -8145.05304612385  -8145.05304612385
  Force two-norm initial, final = 86.590984 1.3860795e-05
  Force max component initial, final = 5.0264616 6.9999405e-07
  Final line search alpha, max atom move = 2.830663e-07 1.9814472e-13
  Iterations, force evaluations = 77 137

MPI task timing breakdown:
Section |  min time  |  avg time  |  max time  |%varavg| %total
---------------------------------------------------------------
Pair    | 0.54001    | 0.54001    | 0.54001    |   0.0 | 98.26
Neigh   | 0.0035818  | 0.0035818  | 0.0035818  |   0.0 |  0.65
Comm    | 0.0022213  | 0.0022213  | 0.0022213  |   0.0 |  0.40
Output  | 0          | 0          | 0          |   0.0 |  0.00
Modify  | 0          | 0          | 0          |   0.0 |  0.00
Other   |            | 0.003785   |            |       |  0.69

Nlocal:           2000 ave        2000 max        2000 min
Histogram: 1 0 0 0 0 0 0 0 0 0
Nghost:           4290 ave        4290 max        4290 min
Histogram: 1 0 0 0 0 0 0 0 0 0
Neighs:         134846 ave      134846 max      134846 min
Histogram: 1 0 0 0 0 0 0 0 0 0

Total # of neighbors = 134846
Ave neighs/atom = 67.423
Neighbor list builds = 1
Dangerous builds = 0
write_dump       all custom md/data/fe_bcc/dump_1.04_relaxed.gz id type x y z
#------------------------------------------------------------------------------#
Total wall time: 0:06:53
