LAMMPS (29 Aug 2024)
OMP_NUM_THREADS environment is not set. Defaulting to 1 thread. (src/comm.cpp:98)
  using 1 OpenMP thread(s) per MPI task
Lattice spacing in x,y,z = 2.856 2.856 2.856
Created orthogonal box = (0 0 0) to (28.56 28.56 28.56)
  1 by 1 by 1 MPI processor grid
Created 2000 atoms
  using lattice units in orthogonal box = (0 0 0) to (28.56 28.56 28.56)
  create_atoms CPU = 0.000 seconds
Neighbor list info ...
  update: every = 1 steps, delay = 0 steps, check = yes
  max neighbors/atom: 2000, page size: 100000
  master list distance cutoff = 7.3
  ghost atom cutoff = 7.3
  binsize = 3.65, bins = 8 8 8
  1 neighbor lists, perpetual/occasional/extra = 1 0 0
  (1) pair eam/fs, perpetual
      attributes: half, newton on
      pair build: half/bin/atomonly/newton
      stencil: half/bin/3d
      bin: standard
Setting up Verlet run ...
  Unit style    : metal
  Current step  : 0
  Time step     : 0.001
Per MPI rank memory allocation (min/avg/max) = 3.94 | 3.94 | 3.94 Mbytes
   Step          Temp          E_pair         E_mol          TotEng         Press          Volume    
         0   2825.16       -8244.8637      0             -7514.8677      32209.901      23295.638    
     10000   2768.1462     -6899.9453      0             -6184.6812     -249.47271      28635.737    
Loop time of 35.7326 on 1 procs for 10000 steps with 2000 atoms

Performance: 24.180 ns/day, 0.993 hours/ns, 279.857 timesteps/s, 559.713 katom-step/s
99.5% CPU use with 1 MPI tasks x 1 OpenMP threads

MPI task timing breakdown:
Section |  min time  |  avg time  |  max time  |%varavg| %total
---------------------------------------------------------------
Pair    | 34.031     | 34.031     | 34.031     |   0.0 | 95.24
Neigh   | 0.91183    | 0.91183    | 0.91183    |   0.0 |  2.55
Comm    | 0.17568    | 0.17568    | 0.17568    |   0.0 |  0.49
Output  | 4.1208e-05 | 4.1208e-05 | 4.1208e-05 |   0.0 |  0.00
Modify  | 0.55662    | 0.55662    | 0.55662    |   0.0 |  1.56
Other   |            | 0.05764    |            |       |  0.16

Nlocal:           2000 ave        2000 max        2000 min
Histogram: 1 0 0 0 0 0 0 0 0 0
Nghost:           4439 ave        4439 max        4439 min
Histogram: 1 0 0 0 0 0 0 0 0 0
Neighs:         113599 ave      113599 max      113599 min
Histogram: 1 0 0 0 0 0 0 0 0 0

Total # of neighbors = 113599
Ave neighs/atom = 56.7995
Neighbor list builds = 259
Dangerous builds = 0
Setting up Verlet run ...
  Unit style    : metal
  Current step  : 10000
  Time step     : 0.001
Per MPI rank memory allocation (min/avg/max) = 3.942 | 3.942 | 3.942 Mbytes
   Step          Temp          E_pair         E_mol          TotEng         Press          Volume    
     10000   2768.1462     -6899.9453      0             -6184.6812     -249.47271      28635.737    
    100000   2788.2134     -6878.6187      0             -6158.1694     -2390.7634      28800.352    
Loop time of 319.485 on 1 procs for 90000 steps with 2000 atoms

Performance: 24.339 ns/day, 0.986 hours/ns, 281.704 timesteps/s, 563.408 katom-step/s
99.5% CPU use with 1 MPI tasks x 1 OpenMP threads

MPI task timing breakdown:
Section |  min time  |  avg time  |  max time  |%varavg| %total
---------------------------------------------------------------
Pair    | 303.94     | 303.94     | 303.94     |   0.0 | 95.13
Neigh   | 8.3395     | 8.3395     | 8.3395     |   0.0 |  2.61
Comm    | 1.574      | 1.574      | 1.574      |   0.0 |  0.49
Output  | 0.078821   | 0.078821   | 0.078821   |   0.0 |  0.02
Modify  | 5.0203     | 5.0203     | 5.0203     |   0.0 |  1.57
Other   |            | 0.5339     |            |       |  0.17

Nlocal:           2000 ave        2000 max        2000 min
Histogram: 1 0 0 0 0 0 0 0 0 0
Nghost:           4446 ave        4446 max        4446 min
Histogram: 1 0 0 0 0 0 0 0 0 0
Neighs:         112670 ave      112670 max      112670 min
Histogram: 1 0 0 0 0 0 0 0 0 0

Total # of neighbors = 112670
Ave neighs/atom = 56.335
Neighbor list builds = 2379
Dangerous builds = 0
Setting up cg style minimization ...
  Unit style    : metal
  Current step  : 100000
Per MPI rank memory allocation (min/avg/max) = 5.067 | 5.067 | 5.067 Mbytes
   Step          Temp          E_pair         E_mol          TotEng         Press          Volume    
    100000   2788.2134     -6878.6187      0             -6158.1694     -2390.7634      28800.352    
    100853   2788.2134     -7645.0008      0             -6924.5514     -96912.552      28800.352    
Loop time of 5.44313 on 1 procs for 853 steps with 2000 atoms

99.6% CPU use with 1 MPI tasks x 1 OpenMP threads

Minimization stats:
  Stopping criterion = linesearch alpha is zero
  Energy initial, next-to-last, final = 
     -6878.61874461745  -7645.00076746913  -7645.00076746913
  Force two-norm initial, final = 98.008244 0.00023667101
  Force max component initial, final = 7.101807 4.5657167e-05
  Final line search alpha, max atom move = 0.16413375 7.493882e-06
  Iterations, force evaluations = 853 1480

MPI task timing breakdown:
Section |  min time  |  avg time  |  max time  |%varavg| %total
---------------------------------------------------------------
Pair    | 5.3437     | 5.3437     | 5.3437     |   0.0 | 98.17
Neigh   | 0.03411    | 0.03411    | 0.03411    |   0.0 |  0.63
Comm    | 0.024187   | 0.024187   | 0.024187   |   0.0 |  0.44
Output  | 0          | 0          | 0          |   0.0 |  0.00
Modify  | 0          | 0          | 0          |   0.0 |  0.00
Other   |            | 0.04112    |            |       |  0.76

Nlocal:           2000 ave        2000 max        2000 min
Histogram: 1 0 0 0 0 0 0 0 0 0
Nghost:           4428 ave        4428 max        4428 min
Histogram: 1 0 0 0 0 0 0 0 0 0
Neighs:         114572 ave      114572 max      114572 min
Histogram: 1 0 0 0 0 0 0 0 0 0

Total # of neighbors = 114572
Ave neighs/atom = 57.286
Neighbor list builds = 10
Dangerous builds = 0
Total wall time: 0:06:00
