LAMMPS (29 Aug 2024)
OMP_NUM_THREADS environment is not set. Defaulting to 1 thread. (src/comm.cpp:98)
  using 1 OpenMP thread(s) per MPI task

#---------------------------- Atomic setup ------------------------------------#
units            metal
timestep         0.001
boundary         p p p
lattice          bcc 2.856
Lattice spacing in x,y,z = 2.856 2.856 2.856
region           sim_box block 0 10 0 10 0 10
create_box       1 sim_box
Created orthogonal box = (0 0 0) to (28.56 28.56 28.56)
  1 by 1 by 1 MPI processor grid
create_atoms     1 box
Created 2000 atoms
  using lattice units in orthogonal box = (0 0 0) to (28.56 28.56 28.56)
  create_atoms CPU = 0.000 seconds

pair_style       eam/fs                                             # interatomic potential (Lennard-Jones, EAM, etc.)
pair_coeff       * * ${potentials_dir}/fe_eam.fs Fe # interatomic potential parameters (ex. eam.alloy Cu_u3.eam)
pair_coeff       * * md/potentials/fe_eam.fs Fe 
pair_modify      tail yes
neigh_modify     delay 0                                                       # neighbor list update frequency (0 = every timestep)
mass             1 55.845                                                 # atomic mass
variable         rnd equal round(random(0,999999,42))

#----------------------------- Equilibriation ---------------------------------#
velocity         all create 869.28 ${rnd} dist gaussian              # initial velocities
velocity         all create 869.28 420940 dist gaussian              
fix              f2 all nph iso 0 0 1.0        # barostat
variable         rnd equal round(random(0,999999,0))
fix              f3 all temp/csvr 869.28 869.28 0.1 ${rnd} # thermostat
fix              f3 all temp/csvr 869.28 869.28 0.1 53464 
run              10000                                           # equilibriation run
Neighbor list info ...
  update: every = 1 steps, delay = 0 steps, check = yes
  max neighbors/atom: 2000, page size: 100000
  master list distance cutoff = 7.3
  ghost atom cutoff = 7.3
  binsize = 3.65, bins = 8 8 8
  1 neighbor lists, perpetual/occasional/extra = 1 0 0
  (1) pair eam/fs, perpetual
      attributes: half, newton on
      pair build: half/bin/atomonly/newton
      stencil: half/bin/3d
      bin: standard
Per MPI rank memory allocation (min/avg/max) = 3.94 | 3.94 | 3.94 Mbytes
   Step          Temp          E_pair         E_mol          TotEng         Press          Volume    
         0   869.28        -8244.8637      0             -8020.2495      9037.8683      23295.638    
     10000   863.42559     -8007.1368      0             -7784.0354     -586.14446      23792.188    
Loop time of 38.5537 on 1 procs for 10000 steps with 2000 atoms

Performance: 22.410 ns/day, 1.071 hours/ns, 259.378 timesteps/s, 518.757 katom-step/s
99.5% CPU use with 1 MPI tasks x 1 OpenMP threads

MPI task timing breakdown:
Section |  min time  |  avg time  |  max time  |%varavg| %total
---------------------------------------------------------------
Pair    | 37.718     | 37.718     | 37.718     |   0.0 | 97.83
Neigh   | 0.03269    | 0.03269    | 0.03269    |   0.0 |  0.08
Comm    | 0.1849     | 0.1849     | 0.1849     |   0.0 |  0.48
Output  | 3.9144e-05 | 3.9144e-05 | 3.9144e-05 |   0.0 |  0.00
Modify  | 0.55781    | 0.55781    | 0.55781    |   0.0 |  1.45
Other   |            | 0.06031    |            |       |  0.16

Nlocal:           2000 ave        2000 max        2000 min
Histogram: 1 0 0 0 0 0 0 0 0 0
Nghost:           5190 ave        5190 max        5190 min
Histogram: 1 0 0 0 0 0 0 0 0 0
Neighs:         139389 ave      139389 max      139389 min
Histogram: 1 0 0 0 0 0 0 0 0 0

Total # of neighbors = 139389
Ave neighs/atom = 69.6945
Neighbor list builds = 8
Dangerous builds = 0

#----------------------------- Run simulation ---------------------------------#
dump             d1 all custom 10000 md/data/fe_bcc/dump_0.48.gz id type x y z # snapshots
run              90000
Per MPI rank memory allocation (min/avg/max) = 3.94 | 3.94 | 3.94 Mbytes
   Step          Temp          E_pair         E_mol          TotEng         Press          Volume    
     10000   863.42559     -8007.1368      0             -7784.0354     -586.14446      23792.188    
    100000   844.9159      -7991.5542      0             -7773.2355     -5276.9703      23907.31     
Loop time of 376.074 on 1 procs for 90000 steps with 2000 atoms

Performance: 20.677 ns/day, 1.161 hours/ns, 239.315 timesteps/s, 478.630 katom-step/s
99.6% CPU use with 1 MPI tasks x 1 OpenMP threads

MPI task timing breakdown:
Section |  min time  |  avg time  |  max time  |%varavg| %total
---------------------------------------------------------------
Pair    | 368.69     | 368.69     | 368.69     |   0.0 | 98.04
Neigh   | 0.16803    | 0.16803    | 0.16803    |   0.0 |  0.04
Comm    | 1.6197     | 1.6197     | 1.6197     |   0.0 |  0.43
Output  | 0.072242   | 0.072242   | 0.072242   |   0.0 |  0.02
Modify  | 5.0114     | 5.0114     | 5.0114     |   0.0 |  1.33
Other   |            | 0.5094     |            |       |  0.14

Nlocal:           2000 ave        2000 max        2000 min
Histogram: 1 0 0 0 0 0 0 0 0 0
Nghost:           5163 ave        5163 max        5163 min
Histogram: 1 0 0 0 0 0 0 0 0 0
Neighs:         139508 ave      139508 max      139508 min
Histogram: 1 0 0 0 0 0 0 0 0 0

Total # of neighbors = 139508
Ave neighs/atom = 69.754
Neighbor list builds = 41
Dangerous builds = 0
undump           d1
min_modify       line forcezero
minimize         0 0 100000 100000                                                                               # minimize energy
Per MPI rank memory allocation (min/avg/max) = 5.065 | 5.065 | 5.065 Mbytes
   Step          Temp          E_pair         E_mol          TotEng         Press          Volume    
    100000   844.9159      -7991.5542      0             -7773.2355     -5276.9703      23907.31     
    100051   844.9159      -8235.6684      0             -8017.3497     -36674.159      23907.31     
Loop time of 0.424093 on 1 procs for 51 steps with 2000 atoms

99.7% CPU use with 1 MPI tasks x 1 OpenMP threads

Minimization stats:
  Stopping criterion = linesearch alpha is zero
  Energy initial, next-to-last, final = 
     -7991.55415978397  -8235.66839285429  -8235.66839285429
  Force two-norm initial, final = 61.84294 3.6884934e-05
  Force max component initial, final = 3.7635736 1.8537794e-06
  Final line search alpha, max atom move = 2.2377964e-07 4.148381e-13
  Iterations, force evaluations = 51 107

MPI task timing breakdown:
Section |  min time  |  avg time  |  max time  |%varavg| %total
---------------------------------------------------------------
Pair    | 0.41943    | 0.41943    | 0.41943    |   0.0 | 98.90
Neigh   | 0          | 0          | 0          |   0.0 |  0.00
Comm    | 0.0019237  | 0.0019237  | 0.0019237  |   0.0 |  0.45
Output  | 0          | 0          | 0          |   0.0 |  0.00
Modify  | 0          | 0          | 0          |   0.0 |  0.00
Other   |            | 0.002738   |            |       |  0.65

Nlocal:           2000 ave        2000 max        2000 min
Histogram: 1 0 0 0 0 0 0 0 0 0
Nghost:           5111 ave        5111 max        5111 min
Histogram: 1 0 0 0 0 0 0 0 0 0
Neighs:         138467 ave      138467 max      138467 min
Histogram: 1 0 0 0 0 0 0 0 0 0

Total # of neighbors = 138467
Ave neighs/atom = 69.2335
Neighbor list builds = 0
Dangerous builds = 0
write_dump       all custom md/data/fe_bcc/dump_0.48_relaxed.gz id type x y z
#------------------------------------------------------------------------------#
Total wall time: 0:06:55
