LAMMPS (29 Aug 2024)
OMP_NUM_THREADS environment is not set. Defaulting to 1 thread. (src/comm.cpp:98)
  using 1 OpenMP thread(s) per MPI task

#---------------------------- Atomic setup ------------------------------------#
units            metal
timestep         0.001
boundary         p p p
lattice          bcc 2.856
Lattice spacing in x,y,z = 2.856 2.856 2.856
region           sim_box block 0 10 0 10 0 10
create_box       1 sim_box
Created orthogonal box = (0 0 0) to (28.56 28.56 28.56)
  1 by 1 by 1 MPI processor grid
create_atoms     1 box
Created 2000 atoms
  using lattice units in orthogonal box = (0 0 0) to (28.56 28.56 28.56)
  create_atoms CPU = 0.000 seconds

pair_style       eam/fs                                             # interatomic potential (Lennard-Jones, EAM, etc.)
pair_coeff       * * ${potentials_dir}/fe_eam.fs Fe # interatomic potential parameters (ex. eam.alloy Cu_u3.eam)
pair_coeff       * * md/potentials/fe_eam.fs Fe 
pair_modify      tail yes
neigh_modify     delay 0                                                       # neighbor list update frequency (0 = every timestep)
mass             1 55.845                                                 # atomic mass
variable         rnd equal round(random(0,999999,42))

#----------------------------- Equilibriation ---------------------------------#
velocity         all create 1955.88 ${rnd} dist gaussian              # initial velocities
velocity         all create 1955.88 420940 dist gaussian              
fix              f2 all nph iso 0 0 1.0        # barostat
variable         rnd equal round(random(0,999999,0))
fix              f3 all temp/csvr 1955.88 1955.88 0.1 ${rnd} # thermostat
fix              f3 all temp/csvr 1955.88 1955.88 0.1 53464 
run              10000                                           # equilibriation run
Neighbor list info ...
  update: every = 1 steps, delay = 0 steps, check = yes
  max neighbors/atom: 2000, page size: 100000
  master list distance cutoff = 7.3
  ghost atom cutoff = 7.3
  binsize = 3.65, bins = 8 8 8
  1 neighbor lists, perpetual/occasional/extra = 1 0 0
  (1) pair eam/fs, perpetual
      attributes: half, newton on
      pair build: half/bin/atomonly/newton
      stencil: half/bin/3d
      bin: standard
Per MPI rank memory allocation (min/avg/max) = 3.94 | 3.94 | 3.94 Mbytes
   Step          Temp          E_pair         E_mol          TotEng         Press          Volume    
         0   1955.88       -8244.8637      0             -7739.4819      21911.22       23295.638    
     10000   1966.5102     -7619.1897      0             -7111.0611     -1016.2804      25256.389    
Loop time of 40.8644 on 1 procs for 10000 steps with 2000 atoms

Performance: 21.143 ns/day, 1.135 hours/ns, 244.712 timesteps/s, 489.424 katom-step/s
99.5% CPU use with 1 MPI tasks x 1 OpenMP threads

MPI task timing breakdown:
Section |  min time  |  avg time  |  max time  |%varavg| %total
---------------------------------------------------------------
Pair    | 39.332     | 39.332     | 39.332     |   0.0 | 96.25
Neigh   | 0.73694    | 0.73694    | 0.73694    |   0.0 |  1.80
Comm    | 0.17899    | 0.17899    | 0.17899    |   0.0 |  0.44
Output  | 0.00015351 | 0.00015351 | 0.00015351 |   0.0 |  0.00
Modify  | 0.5564     | 0.5564     | 0.5564     |   0.0 |  1.36
Other   |            | 0.05991    |            |       |  0.15

Nlocal:           2000 ave        2000 max        2000 min
Histogram: 1 0 0 0 0 0 0 0 0 0
Nghost:           4630 ave        4630 max        4630 min
Histogram: 1 0 0 0 0 0 0 0 0 0
Neighs:         131585 ave      131585 max      131585 min
Histogram: 1 0 0 0 0 0 0 0 0 0

Total # of neighbors = 131585
Ave neighs/atom = 65.7925
Neighbor list builds = 205
Dangerous builds = 0

#----------------------------- Run simulation ---------------------------------#
dump             d1 all custom 10000 md/data/fe_bcc/dump_1.08.gz id type x y z # snapshots
run              90000
Per MPI rank memory allocation (min/avg/max) = 3.942 | 3.942 | 3.942 Mbytes
   Step          Temp          E_pair         E_mol          TotEng         Press          Volume    
     10000   1966.5102     -7619.1897      0             -7111.0611     -1016.2804      25256.389    
    100000   1928.4129     -7579.8903      0             -7081.6057     -4198.1527      25419.3      
Loop time of 368.002 on 1 procs for 90000 steps with 2000 atoms

Performance: 21.130 ns/day, 1.136 hours/ns, 244.564 timesteps/s, 489.128 katom-step/s
99.5% CPU use with 1 MPI tasks x 1 OpenMP threads

MPI task timing breakdown:
Section |  min time  |  avg time  |  max time  |%varavg| %total
---------------------------------------------------------------
Pair    | 354.11     | 354.11     | 354.11     |   0.0 | 96.22
Neigh   | 6.6714     | 6.6714     | 6.6714     |   0.0 |  1.81
Comm    | 1.6055     | 1.6055     | 1.6055     |   0.0 |  0.44
Output  | 0.071629   | 0.071629   | 0.071629   |   0.0 |  0.02
Modify  | 5.0115     | 5.0115     | 5.0115     |   0.0 |  1.36
Other   |            | 0.5363     |            |       |  0.15

Nlocal:           2000 ave        2000 max        2000 min
Histogram: 1 0 0 0 0 0 0 0 0 0
Nghost:           4656 ave        4656 max        4656 min
Histogram: 1 0 0 0 0 0 0 0 0 0
Neighs:         130589 ave      130589 max      130589 min
Histogram: 1 0 0 0 0 0 0 0 0 0

Total # of neighbors = 130589
Ave neighs/atom = 65.2945
Neighbor list builds = 1864
Dangerous builds = 0
undump           d1
min_modify       line forcezero
minimize         0 0 100000 100000                                                                               # minimize energy
Per MPI rank memory allocation (min/avg/max) = 5.067 | 5.067 | 5.067 Mbytes
   Step          Temp          E_pair         E_mol          TotEng         Press          Volume    
    100000   1928.4129     -7579.8903      0             -7081.6057     -4198.1527      25419.3      
    100076   1928.4129     -8147.0931      0             -7648.8085     -112800.96      25419.3      
Loop time of 0.515825 on 1 procs for 76 steps with 2000 atoms

99.6% CPU use with 1 MPI tasks x 1 OpenMP threads

Minimization stats:
  Stopping criterion = linesearch alpha is zero
  Energy initial, next-to-last, final = 
     -7579.89032165525   -8147.0930605224   -8147.0930605224
  Force two-norm initial, final = 87.736249 6.8498691e-05
  Force max component initial, final = 4.1713351 3.8105924e-06
  Final line search alpha, max atom move = 0.019111412 7.2825801e-08
  Iterations, force evaluations = 76 128

MPI task timing breakdown:
Section |  min time  |  avg time  |  max time  |%varavg| %total
---------------------------------------------------------------
Pair    | 0.50649    | 0.50649    | 0.50649    |   0.0 | 98.19
Neigh   | 0.0035804  | 0.0035804  | 0.0035804  |   0.0 |  0.69
Comm    | 0.0020881  | 0.0020881  | 0.0020881  |   0.0 |  0.40
Output  | 0          | 0          | 0          |   0.0 |  0.00
Modify  | 0          | 0          | 0          |   0.0 |  0.00
Other   |            | 0.003669   |            |       |  0.71

Nlocal:           2000 ave        2000 max        2000 min
Histogram: 1 0 0 0 0 0 0 0 0 0
Nghost:           4417 ave        4417 max        4417 min
Histogram: 1 0 0 0 0 0 0 0 0 0
Neighs:         132487 ave      132487 max      132487 min
Histogram: 1 0 0 0 0 0 0 0 0 0

Total # of neighbors = 132487
Ave neighs/atom = 66.2435
Neighbor list builds = 1
Dangerous builds = 0
write_dump       all custom md/data/fe_bcc/dump_1.08_relaxed.gz id type x y z
#------------------------------------------------------------------------------#
Total wall time: 0:06:49
