LAMMPS (29 Aug 2024)
OMP_NUM_THREADS environment is not set. Defaulting to 1 thread. (src/comm.cpp:98)
  using 1 OpenMP thread(s) per MPI task
Lattice spacing in x,y,z = 2.856 2.856 2.856
Created orthogonal box = (0 0 0) to (28.56 28.56 28.56)
  1 by 1 by 1 MPI processor grid
Created 2000 atoms
  using lattice units in orthogonal box = (0 0 0) to (28.56 28.56 28.56)
  create_atoms CPU = 0.000 seconds
Neighbor list info ...
  update: every = 1 steps, delay = 0 steps, check = yes
  max neighbors/atom: 2000, page size: 100000
  master list distance cutoff = 7.3
  ghost atom cutoff = 7.3
  binsize = 3.65, bins = 8 8 8
  1 neighbor lists, perpetual/occasional/extra = 1 0 0
  (1) pair eam/fs, perpetual
      attributes: half, newton on
      pair build: half/bin/atomonly/newton
      stencil: half/bin/3d
      bin: standard
Setting up Verlet run ...
  Unit style    : metal
  Current step  : 0
  Time step     : 0.001
Per MPI rank memory allocation (min/avg/max) = 3.94 | 3.94 | 3.94 Mbytes
   Step          Temp          E_pair         E_mol          TotEng         Press          Volume    
         0   2318.08       -8244.8637      0             -7645.8926      26202.337      23295.638    
     10000   2307.6664     -7147.1657      0             -6550.8854     -437.02598      27185.721    
Loop time of 37.3217 on 1 procs for 10000 steps with 2000 atoms

Performance: 23.150 ns/day, 1.037 hours/ns, 267.941 timesteps/s, 535.882 katom-step/s
99.5% CPU use with 1 MPI tasks x 1 OpenMP threads

MPI task timing breakdown:
Section |  min time  |  avg time  |  max time  |%varavg| %total
---------------------------------------------------------------
Pair    | 35.714     | 35.714     | 35.714     |   0.0 | 95.69
Neigh   | 0.81654    | 0.81654    | 0.81654    |   0.0 |  2.19
Comm    | 0.17613    | 0.17613    | 0.17613    |   0.0 |  0.47
Output  | 0.00014821 | 0.00014821 | 0.00014821 |   0.0 |  0.00
Modify  | 0.55598    | 0.55598    | 0.55598    |   0.0 |  1.49
Other   |            | 0.05868    |            |       |  0.16

Nlocal:           2000 ave        2000 max        2000 min
Histogram: 1 0 0 0 0 0 0 0 0 0
Nghost:           4568 ave        4568 max        4568 min
Histogram: 1 0 0 0 0 0 0 0 0 0
Neighs:         120034 ave      120034 max      120034 min
Histogram: 1 0 0 0 0 0 0 0 0 0

Total # of neighbors = 120034
Ave neighs/atom = 60.017
Neighbor list builds = 230
Dangerous builds = 0
Setting up Verlet run ...
  Unit style    : metal
  Current step  : 10000
  Time step     : 0.001
Per MPI rank memory allocation (min/avg/max) = 3.942 | 3.942 | 3.942 Mbytes
   Step          Temp          E_pair         E_mol          TotEng         Press          Volume    
     10000   2307.6664     -7147.1657      0             -6550.8854     -437.02598      27185.721    
    100000   2325.6715     -7098.3266      0             -6497.394      -2383.6918      27483.625    
Loop time of 329.453 on 1 procs for 90000 steps with 2000 atoms

Performance: 23.603 ns/day, 1.017 hours/ns, 273.180 timesteps/s, 546.360 katom-step/s
99.5% CPU use with 1 MPI tasks x 1 OpenMP threads

MPI task timing breakdown:
Section |  min time  |  avg time  |  max time  |%varavg| %total
---------------------------------------------------------------
Pair    | 314.82     | 314.82     | 314.82     |   0.0 | 95.56
Neigh   | 7.4806     | 7.4806     | 7.4806     |   0.0 |  2.27
Comm    | 1.5715     | 1.5715     | 1.5715     |   0.0 |  0.48
Output  | 0.078408   | 0.078408   | 0.078408   |   0.0 |  0.02
Modify  | 4.9938     | 4.9938     | 4.9938     |   0.0 |  1.52
Other   |            | 0.5097     |            |       |  0.15

Nlocal:           2000 ave        2000 max        2000 min
Histogram: 1 0 0 0 0 0 0 0 0 0
Nghost:           4508 ave        4508 max        4508 min
Histogram: 1 0 0 0 0 0 0 0 0 0
Neighs:         118556 ave      118556 max      118556 min
Histogram: 1 0 0 0 0 0 0 0 0 0

Total # of neighbors = 118556
Ave neighs/atom = 59.278
Neighbor list builds = 2117
Dangerous builds = 0
Setting up cg style minimization ...
  Unit style    : metal
  Current step  : 100000
Per MPI rank memory allocation (min/avg/max) = 5.067 | 5.067 | 5.067 Mbytes
   Step          Temp          E_pair         E_mol          TotEng         Press          Volume    
    100000   2325.6715     -7098.3266      0             -6497.394      -2383.6918      27483.625    
    100726   2325.6715     -7751.8902      0             -7150.9576     -84186.997      27483.625    
Loop time of 4.75881 on 1 procs for 726 steps with 2000 atoms

99.5% CPU use with 1 MPI tasks x 1 OpenMP threads

Minimization stats:
  Stopping criterion = linesearch alpha is zero
  Energy initial, next-to-last, final = 
     -7098.32661423979  -7751.89022665539  -7751.89022665539
  Force two-norm initial, final = 89.850554 6.1665e-05
  Force max component initial, final = 6.6317748 6.8396084e-06
  Final line search alpha, max atom move = 0.16349889 1.1182684e-06
  Iterations, force evaluations = 726 1233

MPI task timing breakdown:
Section |  min time  |  avg time  |  max time  |%varavg| %total
---------------------------------------------------------------
Pair    | 4.6757     | 4.6757     | 4.6757     |   0.0 | 98.25
Neigh   | 0.027959   | 0.027959   | 0.027959   |   0.0 |  0.59
Comm    | 0.020308   | 0.020308   | 0.020308   |   0.0 |  0.43
Output  | 0          | 0          | 0          |   0.0 |  0.00
Modify  | 0          | 0          | 0          |   0.0 |  0.00
Other   |            | 0.03487    |            |       |  0.73

Nlocal:           2000 ave        2000 max        2000 min
Histogram: 1 0 0 0 0 0 0 0 0 0
Nghost:           4481 ave        4481 max        4481 min
Histogram: 1 0 0 0 0 0 0 0 0 0
Neighs:         119917 ave      119917 max      119917 min
Histogram: 1 0 0 0 0 0 0 0 0 0

Total # of neighbors = 119917
Ave neighs/atom = 59.9585
Neighbor list builds = 8
Dangerous builds = 0
Total wall time: 0:06:11
