LAMMPS (29 Aug 2024)
OMP_NUM_THREADS environment is not set. Defaulting to 1 thread. (src/comm.cpp:98)
  using 1 OpenMP thread(s) per MPI task

#---------------------------- Atomic setup ------------------------------------#
units            metal
timestep         0.001
boundary         p p p
lattice          bcc 2.856
Lattice spacing in x,y,z = 2.856 2.856 2.856
region           sim_box block 0 10 0 10 0 10
create_box       1 sim_box
Created orthogonal box = (0 0 0) to (28.56 28.56 28.56)
  1 by 1 by 1 MPI processor grid
create_atoms     1 box
Created 2000 atoms
  using lattice units in orthogonal box = (0 0 0) to (28.56 28.56 28.56)
  create_atoms CPU = 0.000 seconds

pair_style       eam/fs                                             # interatomic potential (Lennard-Jones, EAM, etc.)
pair_coeff       * * ${potentials_dir}/fe_eam.fs Fe # interatomic potential parameters (ex. eam.alloy Cu_u3.eam)
pair_coeff       * * md/potentials/fe_eam.fs Fe 
pair_modify      tail yes
neigh_modify     delay 0                                                       # neighbor list update frequency (0 = every timestep)
mass             1 55.845                                                 # atomic mass
variable         rnd equal round(random(0,999999,42))

#----------------------------- Equilibriation ---------------------------------#
velocity         all create 2535.3999999999996 ${rnd} dist gaussian              # initial velocities
velocity         all create 2535.3999999999996 420940 dist gaussian              
fix              f2 all nph iso 0 0 1.0        # barostat
variable         rnd equal round(random(0,999999,0))
fix              f3 all temp/csvr 2535.3999999999996 2535.3999999999996 0.1 ${rnd} # thermostat
fix              f3 all temp/csvr 2535.3999999999996 2535.3999999999996 0.1 53464 
run              10000                                           # equilibriation run
Neighbor list info ...
  update: every = 1 steps, delay = 0 steps, check = yes
  max neighbors/atom: 2000, page size: 100000
  master list distance cutoff = 7.3
  ghost atom cutoff = 7.3
  binsize = 3.65, bins = 8 8 8
  1 neighbor lists, perpetual/occasional/extra = 1 0 0
  (1) pair eam/fs, perpetual
      attributes: half, newton on
      pair build: half/bin/atomonly/newton
      stencil: half/bin/3d
      bin: standard
Per MPI rank memory allocation (min/avg/max) = 3.94 | 3.94 | 3.94 Mbytes
   Step          Temp          E_pair         E_mol          TotEng         Press          Volume    
         0   2535.4        -8244.8637      0             -7589.7391      28777.007      23295.638    
     10000   2516.3622     -7051.9983      0             -6401.7929      5128.3113      27550.325    
Loop time of 36.5827 on 1 procs for 10000 steps with 2000 atoms

Performance: 23.618 ns/day, 1.016 hours/ns, 273.353 timesteps/s, 546.706 katom-step/s
99.5% CPU use with 1 MPI tasks x 1 OpenMP threads

MPI task timing breakdown:
Section |  min time  |  avg time  |  max time  |%varavg| %total
---------------------------------------------------------------
Pair    | 34.94      | 34.94      | 34.94      |   0.0 | 95.51
Neigh   | 0.85562    | 0.85562    | 0.85562    |   0.0 |  2.34
Comm    | 0.17418    | 0.17418    | 0.17418    |   0.0 |  0.48
Output  | 0.00014509 | 0.00014509 | 0.00014509 |   0.0 |  0.00
Modify  | 0.5553     | 0.5553     | 0.5553     |   0.0 |  1.52
Other   |            | 0.05798    |            |       |  0.16

Nlocal:           2000 ave        2000 max        2000 min
Histogram: 1 0 0 0 0 0 0 0 0 0
Nghost:           4500 ave        4500 max        4500 min
Histogram: 1 0 0 0 0 0 0 0 0 0
Neighs:         118112 ave      118112 max      118112 min
Histogram: 1 0 0 0 0 0 0 0 0 0

Total # of neighbors = 118112
Ave neighs/atom = 59.056
Neighbor list builds = 243
Dangerous builds = 0

#----------------------------- Run simulation ---------------------------------#
dump             d1 all custom 10000 md/data/fe_bcc/dump_1.4.gz id type x y z # snapshots
run              90000
Per MPI rank memory allocation (min/avg/max) = 3.942 | 3.942 | 3.942 Mbytes
   Step          Temp          E_pair         E_mol          TotEng         Press          Volume    
     10000   2516.3622     -7051.9983      0             -6401.7929      5128.3113      27550.325    
    100000   2476.8453     -6991.7903      0             -6351.7957     -2775.6275      28107.591    
Loop time of 325.761 on 1 procs for 90000 steps with 2000 atoms

Performance: 23.870 ns/day, 1.005 hours/ns, 276.276 timesteps/s, 552.553 katom-step/s
99.5% CPU use with 1 MPI tasks x 1 OpenMP threads

MPI task timing breakdown:
Section |  min time  |  avg time  |  max time  |%varavg| %total
---------------------------------------------------------------
Pair    | 310.73     | 310.73     | 310.73     |   0.0 | 95.38
Neigh   | 7.8323     | 7.8323     | 7.8323     |   0.0 |  2.40
Comm    | 1.5718     | 1.5718     | 1.5718     |   0.0 |  0.48
Output  | 0.078142   | 0.078142   | 0.078142   |   0.0 |  0.02
Modify  | 5.0094     | 5.0094     | 5.0094     |   0.0 |  1.54
Other   |            | 0.5428     |            |       |  0.17

Nlocal:           2000 ave        2000 max        2000 min
Histogram: 1 0 0 0 0 0 0 0 0 0
Nghost:           4414 ave        4414 max        4414 min
Histogram: 1 0 0 0 0 0 0 0 0 0
Neighs:         115590 ave      115590 max      115590 min
Histogram: 1 0 0 0 0 0 0 0 0 0

Total # of neighbors = 115590
Ave neighs/atom = 57.795
Neighbor list builds = 2232
Dangerous builds = 0
undump           d1
min_modify       line forcezero
minimize         0 0 100000 100000                                                                               # minimize energy
Per MPI rank memory allocation (min/avg/max) = 5.067 | 5.067 | 5.067 Mbytes
   Step          Temp          E_pair         E_mol          TotEng         Press          Volume    
    100000   2476.8453     -6991.7903      0             -6351.7957     -2775.6275      28107.591    
    100651   2476.8453     -7692.8668      0             -7052.8722     -91985.153      28107.591    
Loop time of 4.07557 on 1 procs for 651 steps with 2000 atoms

99.6% CPU use with 1 MPI tasks x 1 OpenMP threads

Minimization stats:
  Stopping criterion = linesearch alpha is zero
  Energy initial, next-to-last, final = 
     -6991.79032373313  -7692.86679570636  -7692.86679570636
  Force two-norm initial, final = 94.877404 2.7386517e-05
  Force max component initial, final = 7.8082864 4.4408261e-06
  Final line search alpha, max atom move = 1.7358027e-06 7.7083982e-12
  Iterations, force evaluations = 651 1078

MPI task timing breakdown:
Section |  min time  |  avg time  |  max time  |%varavg| %total
---------------------------------------------------------------
Pair    | 4.0034     | 4.0034     | 4.0034     |   0.0 | 98.23
Neigh   | 0.024048   | 0.024048   | 0.024048   |   0.0 |  0.59
Comm    | 0.017671   | 0.017671   | 0.017671   |   0.0 |  0.43
Output  | 0          | 0          | 0          |   0.0 |  0.00
Modify  | 0          | 0          | 0          |   0.0 |  0.00
Other   |            | 0.03043    |            |       |  0.75

Nlocal:           2000 ave        2000 max        2000 min
Histogram: 1 0 0 0 0 0 0 0 0 0
Nghost:           4492 ave        4492 max        4492 min
Histogram: 1 0 0 0 0 0 0 0 0 0
Neighs:         117308 ave      117308 max      117308 min
Histogram: 1 0 0 0 0 0 0 0 0 0

Total # of neighbors = 117308
Ave neighs/atom = 58.654
Neighbor list builds = 7
Dangerous builds = 0
write_dump       all custom md/data/fe_bcc/dump_1.4_relaxed.gz id type x y z
#------------------------------------------------------------------------------#
Total wall time: 0:06:06
