LAMMPS (29 Aug 2024)
OMP_NUM_THREADS environment is not set. Defaulting to 1 thread. (src/comm.cpp:98)
  using 1 OpenMP thread(s) per MPI task
Lattice spacing in x,y,z = 2.856 2.856 2.856
Created orthogonal box = (0 0 0) to (28.56 28.56 28.56)
  1 by 1 by 1 MPI processor grid
Created 2000 atoms
  using lattice units in orthogonal box = (0 0 0) to (28.56 28.56 28.56)
  create_atoms CPU = 0.000 seconds
Neighbor list info ...
  update: every = 1 steps, delay = 0 steps, check = yes
  max neighbors/atom: 2000, page size: 100000
  master list distance cutoff = 7.3
  ghost atom cutoff = 7.3
  binsize = 3.65, bins = 8 8 8
  1 neighbor lists, perpetual/occasional/extra = 1 0 0
  (1) pair eam/fs, perpetual
      attributes: half, newton on
      pair build: half/bin/atomonly/newton
      stencil: half/bin/3d
      bin: standard
Setting up Verlet run ...
  Unit style    : metal
  Current step  : 0
  Time step     : 0.001
Per MPI rank memory allocation (min/avg/max) = 3.94 | 3.94 | 3.94 Mbytes
   Step          Temp          E_pair         E_mol          TotEng         Press          Volume    
         0   507.08        -8244.8637      0             -8113.8388      4746.7512      23295.638    
     10000   493.41416     -8106.4965      0             -7979.0027     -2354.1365      23519.612    
Loop time of 33.027 on 1 procs for 10000 steps with 2000 atoms

Performance: 26.160 ns/day, 0.917 hours/ns, 302.783 timesteps/s, 605.565 katom-step/s
99.5% CPU use with 1 MPI tasks x 1 OpenMP threads

MPI task timing breakdown:
Section |  min time  |  avg time  |  max time  |%varavg| %total
---------------------------------------------------------------
Pair    | 32.22      | 32.22      | 32.22      |   0.0 | 97.56
Neigh   | 0          | 0          | 0          |   0.0 |  0.00
Comm    | 0.18859    | 0.18859    | 0.18859    |   0.0 |  0.57
Output  | 0.00013831 | 0.00013831 | 0.00013831 |   0.0 |  0.00
Modify  | 0.55625    | 0.55625    | 0.55625    |   0.0 |  1.68
Other   |            | 0.06244    |            |       |  0.19

Nlocal:           2000 ave        2000 max        2000 min
Histogram: 1 0 0 0 0 0 0 0 0 0
Nghost:           5471 ave        5471 max        5471 min
Histogram: 1 0 0 0 0 0 0 0 0 0
Neighs:         136000 ave      136000 max      136000 min
Histogram: 1 0 0 0 0 0 0 0 0 0

Total # of neighbors = 136000
Ave neighs/atom = 68
Neighbor list builds = 0
Dangerous builds = 0
Setting up Verlet run ...
  Unit style    : metal
  Current step  : 10000
  Time step     : 0.001
Per MPI rank memory allocation (min/avg/max) = 3.94 | 3.94 | 3.94 Mbytes
   Step          Temp          E_pair         E_mol          TotEng         Press          Volume    
     10000   493.41416     -8106.4965      0             -7979.0027     -2354.1365      23519.612    
    100000   496.50126     -8101.4802      0             -7973.1887     -1380.4362      23525.467    
Loop time of 357.701 on 1 procs for 90000 steps with 2000 atoms

Performance: 21.739 ns/day, 1.104 hours/ns, 251.607 timesteps/s, 503.213 katom-step/s
99.6% CPU use with 1 MPI tasks x 1 OpenMP threads

MPI task timing breakdown:
Section |  min time  |  avg time  |  max time  |%varavg| %total
---------------------------------------------------------------
Pair    | 350.45     | 350.45     | 350.45     |   0.0 | 97.97
Neigh   | 0          | 0          | 0          |   0.0 |  0.00
Comm    | 1.6422     | 1.6422     | 1.6422     |   0.0 |  0.46
Output  | 0.072743   | 0.072743   | 0.072743   |   0.0 |  0.02
Modify  | 5.0218     | 5.0218     | 5.0218     |   0.0 |  1.40
Other   |            | 0.5163     |            |       |  0.14

Nlocal:           2000 ave        2000 max        2000 min
Histogram: 1 0 0 0 0 0 0 0 0 0
Nghost:           5348 ave        5348 max        5348 min
Histogram: 1 0 0 0 0 0 0 0 0 0
Neighs:         139747 ave      139747 max      139747 min
Histogram: 1 0 0 0 0 0 0 0 0 0

Total # of neighbors = 139747
Ave neighs/atom = 69.8735
Neighbor list builds = 0
Dangerous builds = 0
Setting up cg style minimization ...
  Unit style    : metal
  Current step  : 100000
Per MPI rank memory allocation (min/avg/max) = 5.065 | 5.065 | 5.065 Mbytes
   Step          Temp          E_pair         E_mol          TotEng         Press          Volume    
    100000   496.50126     -8101.4802      0             -7973.1887     -1380.4362      23525.467    
    100052   496.50126     -8243.4362      0             -8115.1447     -12747.781      23525.467    
Loop time of 0.419044 on 1 procs for 52 steps with 2000 atoms

99.6% CPU use with 1 MPI tasks x 1 OpenMP threads

Minimization stats:
  Stopping criterion = linesearch alpha is zero
  Energy initial, next-to-last, final = 
     -8101.48019258543  -8243.43615760511  -8243.43615760511
  Force two-norm initial, final = 48.636243 6.9678332e-06
  Force max component initial, final = 2.2664542 3.4070131e-07
  Final line search alpha, max atom move = 0 0
  Iterations, force evaluations = 52 109

MPI task timing breakdown:
Section |  min time  |  avg time  |  max time  |%varavg| %total
---------------------------------------------------------------
Pair    | 0.41419    | 0.41419    | 0.41419    |   0.0 | 98.84
Neigh   | 0          | 0          | 0          |   0.0 |  0.00
Comm    | 0.0020309  | 0.0020309  | 0.0020309  |   0.0 |  0.48
Output  | 0          | 0          | 0          |   0.0 |  0.00
Modify  | 0          | 0          | 0          |   0.0 |  0.00
Other   |            | 0.002823   |            |       |  0.67

Nlocal:           2000 ave        2000 max        2000 min
Histogram: 1 0 0 0 0 0 0 0 0 0
Nghost:           5368 ave        5368 max        5368 min
Histogram: 1 0 0 0 0 0 0 0 0 0
Neighs:         139621 ave      139621 max      139621 min
Histogram: 1 0 0 0 0 0 0 0 0 0

Total # of neighbors = 139621
Ave neighs/atom = 69.8105
Neighbor list builds = 0
Dangerous builds = 0
Total wall time: 0:06:31
