LAMMPS (29 Aug 2024)
OMP_NUM_THREADS environment is not set. Defaulting to 1 thread. (src/comm.cpp:98)
  using 1 OpenMP thread(s) per MPI task

#---------------------------- Atomic setup ------------------------------------#
units            metal
timestep         0.001
boundary         p p p
lattice          bcc 2.856
Lattice spacing in x,y,z = 2.856 2.856 2.856
region           sim_box block 0 10 0 10 0 10
create_box       1 sim_box
Created orthogonal box = (0 0 0) to (28.56 28.56 28.56)
  1 by 1 by 1 MPI processor grid
create_atoms     1 box
Created 2000 atoms
  using lattice units in orthogonal box = (0 0 0) to (28.56 28.56 28.56)
  create_atoms CPU = 0.000 seconds

pair_style       eam/fs                                             # interatomic potential (Lennard-Jones, EAM, etc.)
pair_coeff       * * ${potentials_dir}/fe_eam.fs Fe # interatomic potential parameters (ex. eam.alloy Cu_u3.eam)
pair_coeff       * * md/potentials/fe_eam.fs Fe 
pair_modify      tail yes
neigh_modify     delay 0                                                       # neighbor list update frequency (0 = every timestep)
mass             1 55.845                                                 # atomic mass
variable         rnd equal round(random(0,999999,42))

#----------------------------- Equilibriation ---------------------------------#
velocity         all create 1521.24 ${rnd} dist gaussian              # initial velocities
velocity         all create 1521.24 420940 dist gaussian              
fix              f2 all nph iso 0 0 1.0        # barostat
variable         rnd equal round(random(0,999999,0))
fix              f3 all temp/csvr 1521.24 1521.24 0.1 ${rnd} # thermostat
fix              f3 all temp/csvr 1521.24 1521.24 0.1 53464 
run              10000                                           # equilibriation run
Neighbor list info ...
  update: every = 1 steps, delay = 0 steps, check = yes
  max neighbors/atom: 2000, page size: 100000
  master list distance cutoff = 7.3
  ghost atom cutoff = 7.3
  binsize = 3.65, bins = 8 8 8
  1 neighbor lists, perpetual/occasional/extra = 1 0 0
  (1) pair eam/fs, perpetual
      attributes: half, newton on
      pair build: half/bin/atomonly/newton
      stencil: half/bin/3d
      bin: standard
Per MPI rank memory allocation (min/avg/max) = 3.94 | 3.94 | 3.94 Mbytes
   Step          Temp          E_pair         E_mol          TotEng         Press          Volume    
         0   1521.24       -8244.8637      0             -7851.7889      16761.879      23295.638    
     10000   1510.1052     -7793.9744      0             -7403.7768     -160.39038      24522.873    
Loop time of 42.4425 on 1 procs for 10000 steps with 2000 atoms

Performance: 20.357 ns/day, 1.179 hours/ns, 235.613 timesteps/s, 471.225 katom-step/s
99.5% CPU use with 1 MPI tasks x 1 OpenMP threads

MPI task timing breakdown:
Section |  min time  |  avg time  |  max time  |%varavg| %total
---------------------------------------------------------------
Pair    | 40.941     | 40.941     | 40.941     |   0.0 | 96.46
Neigh   | 0.70125    | 0.70125    | 0.70125    |   0.0 |  1.65
Comm    | 0.18143    | 0.18143    | 0.18143    |   0.0 |  0.43
Output  | 0.00013677 | 0.00013677 | 0.00013677 |   0.0 |  0.00
Modify  | 0.55976    | 0.55976    | 0.55976    |   0.0 |  1.32
Other   |            | 0.05928    |            |       |  0.14

Nlocal:           2000 ave        2000 max        2000 min
Histogram: 1 0 0 0 0 0 0 0 0 0
Nghost:           4864 ave        4864 max        4864 min
Histogram: 1 0 0 0 0 0 0 0 0 0
Neighs:         135229 ave      135229 max      135229 min
Histogram: 1 0 0 0 0 0 0 0 0 0

Total # of neighbors = 135229
Ave neighs/atom = 67.6145
Neighbor list builds = 170
Dangerous builds = 0

#----------------------------- Run simulation ---------------------------------#
dump             d1 all custom 10000 md/data/fe_bcc/dump_0.84.gz id type x y z # snapshots
run              90000
Per MPI rank memory allocation (min/avg/max) = 3.94 | 3.94 | 3.94 Mbytes
   Step          Temp          E_pair         E_mol          TotEng         Press          Volume    
     10000   1510.1052     -7793.9744      0             -7403.7768     -160.39038      24522.873    
    100000   1554.2952     -7784.5095      0             -7382.8935     -1583.486       24576.402    
Loop time of 382.558 on 1 procs for 90000 steps with 2000 atoms

Performance: 20.326 ns/day, 1.181 hours/ns, 235.258 timesteps/s, 470.517 katom-step/s
99.5% CPU use with 1 MPI tasks x 1 OpenMP threads

MPI task timing breakdown:
Section |  min time  |  avg time  |  max time  |%varavg| %total
---------------------------------------------------------------
Pair    | 368.84     | 368.84     | 368.84     |   0.0 | 96.41
Neigh   | 6.4528     | 6.4528     | 6.4528     |   0.0 |  1.69
Comm    | 1.6487     | 1.6487     | 1.6487     |   0.0 |  0.43
Output  | 0.072642   | 0.072642   | 0.072642   |   0.0 |  0.02
Modify  | 5.0097     | 5.0097     | 5.0097     |   0.0 |  1.31
Other   |            | 0.5336     |            |       |  0.14

Nlocal:           2000 ave        2000 max        2000 min
Histogram: 1 0 0 0 0 0 0 0 0 0
Nghost:           4905 ave        4905 max        4905 min
Histogram: 1 0 0 0 0 0 0 0 0 0
Neighs:         134859 ave      134859 max      134859 min
Histogram: 1 0 0 0 0 0 0 0 0 0

Total # of neighbors = 134859
Ave neighs/atom = 67.4295
Neighbor list builds = 1559
Dangerous builds = 0
undump           d1
min_modify       line forcezero
minimize         0 0 100000 100000                                                                               # minimize energy
Per MPI rank memory allocation (min/avg/max) = 5.065 | 5.065 | 5.065 Mbytes
   Step          Temp          E_pair         E_mol          TotEng         Press          Volume    
    100000   1554.2952     -7784.5095      0             -7382.8935     -1583.486       24576.402    
    100066   1554.2952     -8206.7287      0             -7805.1128     -73245.135      24576.402    
Loop time of 0.516441 on 1 procs for 66 steps with 2000 atoms

99.6% CPU use with 1 MPI tasks x 1 OpenMP threads

Minimization stats:
  Stopping criterion = linesearch alpha is zero
  Energy initial, next-to-last, final = 
     -7784.50947532576  -8206.72873964561  -8206.72873964561
  Force two-norm initial, final = 79.682927 6.8435952e-06
  Force max component initial, final = 4.335018 3.5117291e-07
  Final line search alpha, max atom move = 1.8206024e-05 6.3934623e-12
  Iterations, force evaluations = 66 128

MPI task timing breakdown:
Section |  min time  |  avg time  |  max time  |%varavg| %total
---------------------------------------------------------------
Pair    | 0.51064    | 0.51064    | 0.51064    |   0.0 | 98.88
Neigh   | 0          | 0          | 0          |   0.0 |  0.00
Comm    | 0.0023235  | 0.0023235  | 0.0023235  |   0.0 |  0.45
Output  | 0          | 0          | 0          |   0.0 |  0.00
Modify  | 0          | 0          | 0          |   0.0 |  0.00
Other   |            | 0.003482   |            |       |  0.67

Nlocal:           2000 ave        2000 max        2000 min
Histogram: 1 0 0 0 0 0 0 0 0 0
Nghost:           4895 ave        4895 max        4895 min
Histogram: 1 0 0 0 0 0 0 0 0 0
Neighs:         134927 ave      134927 max      134927 min
Histogram: 1 0 0 0 0 0 0 0 0 0

Total # of neighbors = 134927
Ave neighs/atom = 67.4635
Neighbor list builds = 0
Dangerous builds = 0
write_dump       all custom md/data/fe_bcc/dump_0.84_relaxed.gz id type x y z
#------------------------------------------------------------------------------#
Total wall time: 0:07:05
