LAMMPS (29 Aug 2024)
OMP_NUM_THREADS environment is not set. Defaulting to 1 thread. (src/comm.cpp:98)
  using 1 OpenMP thread(s) per MPI task

#---------------------------- Atomic setup ------------------------------------#
units            metal
timestep         0.001
boundary         p p p
lattice          bcc 2.856
Lattice spacing in x,y,z = 2.856 2.856 2.856
region           sim_box block 0 10 0 10 0 10
create_box       1 sim_box
Created orthogonal box = (0 0 0) to (28.56 28.56 28.56)
  1 by 1 by 1 MPI processor grid
create_atoms     1 box
Created 2000 atoms
  using lattice units in orthogonal box = (0 0 0) to (28.56 28.56 28.56)
  create_atoms CPU = 0.000 seconds

pair_style       eam/fs                                             # interatomic potential (Lennard-Jones, EAM, etc.)
pair_coeff       * * ${potentials_dir}/fe_eam.fs Fe # interatomic potential parameters (ex. eam.alloy Cu_u3.eam)
pair_coeff       * * md/potentials/fe_eam.fs Fe 
pair_modify      tail yes
neigh_modify     delay 0                                                       # neighbor list update frequency (0 = every timestep)
mass             1 55.845                                                 # atomic mass
variable         rnd equal round(random(0,999999,42))

#----------------------------- Equilibriation ---------------------------------#
velocity         all create 72.44 ${rnd} dist gaussian              # initial velocities
velocity         all create 72.44 420940 dist gaussian              
fix              f2 all nph iso 0 0 1.0        # barostat
variable         rnd equal round(random(0,999999,0))
fix              f3 all temp/csvr 72.44 72.44 0.1 ${rnd} # thermostat
fix              f3 all temp/csvr 72.44 72.44 0.1 53464 
run              10000                                           # equilibriation run
Neighbor list info ...
  update: every = 1 steps, delay = 0 steps, check = yes
  max neighbors/atom: 2000, page size: 100000
  master list distance cutoff = 7.3
  ghost atom cutoff = 7.3
  binsize = 3.65, bins = 8 8 8
  1 neighbor lists, perpetual/occasional/extra = 1 0 0
  (1) pair eam/fs, perpetual
      attributes: half, newton on
      pair build: half/bin/atomonly/newton
      stencil: half/bin/3d
      bin: standard
Per MPI rank memory allocation (min/avg/max) = 3.94 | 3.94 | 3.94 Mbytes
   Step          Temp          E_pair         E_mol          TotEng         Press          Volume    
         0   72.44         -8244.8637      0             -8226.1459     -402.58935      23295.638    
     10000   71.403763     -8226.5165      0             -8208.0664     -326.50857      23277.968    
Loop time of 30.7957 on 1 procs for 10000 steps with 2000 atoms

Performance: 28.056 ns/day, 0.855 hours/ns, 324.720 timesteps/s, 649.441 katom-step/s
99.5% CPU use with 1 MPI tasks x 1 OpenMP threads

MPI task timing breakdown:
Section |  min time  |  avg time  |  max time  |%varavg| %total
---------------------------------------------------------------
Pair    | 29.991     | 29.991     | 29.991     |   0.0 | 97.39
Neigh   | 0          | 0          | 0          |   0.0 |  0.00
Comm    | 0.18857    | 0.18857    | 0.18857    |   0.0 |  0.61
Output  | 3.8502e-05 | 3.8502e-05 | 3.8502e-05 |   0.0 |  0.00
Modify  | 0.55526    | 0.55526    | 0.55526    |   0.0 |  1.80
Other   |            | 0.06089    |            |       |  0.20

Nlocal:           2000 ave        2000 max        2000 min
Histogram: 1 0 0 0 0 0 0 0 0 0
Nghost:           5471 ave        5471 max        5471 min
Histogram: 1 0 0 0 0 0 0 0 0 0
Neighs:         136000 ave      136000 max      136000 min
Histogram: 1 0 0 0 0 0 0 0 0 0

Total # of neighbors = 136000
Ave neighs/atom = 68
Neighbor list builds = 0
Dangerous builds = 0

#----------------------------- Run simulation ---------------------------------#
dump             d1 all custom 10000 md/data/fe_bcc/dump_0.04.gz id type x y z # snapshots
run              90000
Per MPI rank memory allocation (min/avg/max) = 3.94 | 3.94 | 3.94 Mbytes
   Step          Temp          E_pair         E_mol          TotEng         Press          Volume    
     10000   71.403763     -8226.5165      0             -8208.0664     -326.50857      23277.968    
    100000   70.967052     -8225.5017      0             -8207.1645      202.43529      23273.254    
Loop time of 327.055 on 1 procs for 90000 steps with 2000 atoms

Performance: 23.776 ns/day, 1.009 hours/ns, 275.183 timesteps/s, 550.367 katom-step/s
99.5% CPU use with 1 MPI tasks x 1 OpenMP threads

MPI task timing breakdown:
Section |  min time  |  avg time  |  max time  |%varavg| %total
---------------------------------------------------------------
Pair    | 319.78     | 319.78     | 319.78     |   0.0 | 97.78
Neigh   | 0          | 0          | 0          |   0.0 |  0.00
Comm    | 1.6776     | 1.6776     | 1.6776     |   0.0 |  0.51
Output  | 0.072181   | 0.072181   | 0.072181   |   0.0 |  0.02
Modify  | 4.9962     | 4.9962     | 4.9962     |   0.0 |  1.53
Other   |            | 0.5278     |            |       |  0.16

Nlocal:           2000 ave        2000 max        2000 min
Histogram: 1 0 0 0 0 0 0 0 0 0
Nghost:           5471 ave        5471 max        5471 min
Histogram: 1 0 0 0 0 0 0 0 0 0
Neighs:         136126 ave      136126 max      136126 min
Histogram: 1 0 0 0 0 0 0 0 0 0

Total # of neighbors = 136126
Ave neighs/atom = 68.063
Neighbor list builds = 0
Dangerous builds = 0
undump           d1
min_modify       line forcezero
minimize         0 0 100000 100000                                                                               # minimize energy
Per MPI rank memory allocation (min/avg/max) = 5.065 | 5.065 | 5.065 Mbytes
   Step          Temp          E_pair         E_mol          TotEng         Press          Volume    
    100000   70.967052     -8225.5017      0             -8207.1645      202.43529      23273.254    
    100043   70.967052     -8244.8694      0             -8226.5321      1289.35        23273.254    
Loop time of 0.354484 on 1 procs for 43 steps with 2000 atoms

99.6% CPU use with 1 MPI tasks x 1 OpenMP threads

Minimization stats:
  Stopping criterion = linesearch alpha is zero
  Energy initial, next-to-last, final = 
     -8225.50171215851   -8244.8693825459   -8244.8693825459
  Force two-norm initial, final = 19.566178 3.3285461e-05
  Force max component initial, final = 1.0171395 2.2241716e-06
  Final line search alpha, max atom move = 6.7009234e-08 1.4904003e-13
  Iterations, force evaluations = 43 97

MPI task timing breakdown:
Section |  min time  |  avg time  |  max time  |%varavg| %total
---------------------------------------------------------------
Pair    | 0.35022    | 0.35022    | 0.35022    |   0.0 | 98.80
Neigh   | 0          | 0          | 0          |   0.0 |  0.00
Comm    | 0.0018596  | 0.0018596  | 0.0018596  |   0.0 |  0.52
Output  | 0          | 0          | 0          |   0.0 |  0.00
Modify  | 0          | 0          | 0          |   0.0 |  0.00
Other   |            | 0.002404   |            |       |  0.68

Nlocal:           2000 ave        2000 max        2000 min
Histogram: 1 0 0 0 0 0 0 0 0 0
Nghost:           5471 ave        5471 max        5471 min
Histogram: 1 0 0 0 0 0 0 0 0 0
Neighs:         136139 ave      136139 max      136139 min
Histogram: 1 0 0 0 0 0 0 0 0 0

Total # of neighbors = 136139
Ave neighs/atom = 68.0695
Neighbor list builds = 0
Dangerous builds = 0
write_dump       all custom md/data/fe_bcc/dump_0.04_relaxed.gz id type x y z
#------------------------------------------------------------------------------#
Total wall time: 0:05:58
