LAMMPS (29 Aug 2024)
OMP_NUM_THREADS environment is not set. Defaulting to 1 thread. (src/comm.cpp:98)
  using 1 OpenMP thread(s) per MPI task
Lattice spacing in x,y,z = 2.856 2.856 2.856
Created orthogonal box = (0 0 0) to (28.56 28.56 28.56)
  1 by 1 by 1 MPI processor grid
Created 2000 atoms
  using lattice units in orthogonal box = (0 0 0) to (28.56 28.56 28.56)
  create_atoms CPU = 0.000 seconds
Neighbor list info ...
  update: every = 1 steps, delay = 0 steps, check = yes
  max neighbors/atom: 2000, page size: 100000
  master list distance cutoff = 7.3
  ghost atom cutoff = 7.3
  binsize = 3.65, bins = 8 8 8
  1 neighbor lists, perpetual/occasional/extra = 1 0 0
  (1) pair eam/fs, perpetual
      attributes: half, newton on
      pair build: half/bin/atomonly/newton
      stencil: half/bin/3d
      bin: standard
Setting up Verlet run ...
  Unit style    : metal
  Current step  : 0
  Time step     : 0.001
Per MPI rank memory allocation (min/avg/max) = 3.94 | 3.94 | 3.94 Mbytes
   Step          Temp          E_pair         E_mol          TotEng         Press          Volume    
         0   2680.28       -8244.8637      0             -7552.3034      30493.454      23295.638    
     10000   2667.0326     -6986.9111      0             -6297.7738      1378.4443      28089.934    
Loop time of 36.169 on 1 procs for 10000 steps with 2000 atoms

Performance: 23.888 ns/day, 1.005 hours/ns, 276.480 timesteps/s, 552.959 katom-step/s
99.5% CPU use with 1 MPI tasks x 1 OpenMP threads

MPI task timing breakdown:
Section |  min time  |  avg time  |  max time  |%varavg| %total
---------------------------------------------------------------
Pair    | 34.487     | 34.487     | 34.487     |   0.0 | 95.35
Neigh   | 0.88958    | 0.88958    | 0.88958    |   0.0 |  2.46
Comm    | 0.17618    | 0.17618    | 0.17618    |   0.0 |  0.49
Output  | 0.00014559 | 0.00014559 | 0.00014559 |   0.0 |  0.00
Modify  | 0.55754    | 0.55754    | 0.55754    |   0.0 |  1.54
Other   |            | 0.059      |            |       |  0.16

Nlocal:           2000 ave        2000 max        2000 min
Histogram: 1 0 0 0 0 0 0 0 0 0
Nghost:           4464 ave        4464 max        4464 min
Histogram: 1 0 0 0 0 0 0 0 0 0
Neighs:         115730 ave      115730 max      115730 min
Histogram: 1 0 0 0 0 0 0 0 0 0

Total # of neighbors = 115730
Ave neighs/atom = 57.865
Neighbor list builds = 252
Dangerous builds = 0
Setting up Verlet run ...
  Unit style    : metal
  Current step  : 10000
  Time step     : 0.001
Per MPI rank memory allocation (min/avg/max) = 3.942 | 3.942 | 3.942 Mbytes
   Step          Temp          E_pair         E_mol          TotEng         Press          Volume    
     10000   2667.0326     -6986.9111      0             -6297.7738      1378.4443      28089.934    
    100000   2700.392      -6943.041       0             -6245.2839      851.79337      28375.451    
Loop time of 323.143 on 1 procs for 90000 steps with 2000 atoms

Performance: 24.064 ns/day, 0.997 hours/ns, 278.514 timesteps/s, 557.029 katom-step/s
99.5% CPU use with 1 MPI tasks x 1 OpenMP threads

MPI task timing breakdown:
Section |  min time  |  avg time  |  max time  |%varavg| %total
---------------------------------------------------------------
Pair    | 307.82     | 307.82     | 307.82     |   0.0 | 95.26
Neigh   | 8.1121     | 8.1121     | 8.1121     |   0.0 |  2.51
Comm    | 1.5689     | 1.5689     | 1.5689     |   0.0 |  0.49
Output  | 0.078628   | 0.078628   | 0.078628   |   0.0 |  0.02
Modify  | 5.0251     | 5.0251     | 5.0251     |   0.0 |  1.56
Other   |            | 0.5399     |            |       |  0.17

Nlocal:           2000 ave        2000 max        2000 min
Histogram: 1 0 0 0 0 0 0 0 0 0
Nghost:           4407 ave        4407 max        4407 min
Histogram: 1 0 0 0 0 0 0 0 0 0
Neighs:         114272 ave      114272 max      114272 min
Histogram: 1 0 0 0 0 0 0 0 0 0

Total # of neighbors = 114272
Ave neighs/atom = 57.136
Neighbor list builds = 2305
Dangerous builds = 0
Setting up cg style minimization ...
  Unit style    : metal
  Current step  : 100000
Per MPI rank memory allocation (min/avg/max) = 5.067 | 5.067 | 5.067 Mbytes
   Step          Temp          E_pair         E_mol          TotEng         Press          Volume    
    100000   2700.392      -6943.041       0             -6245.2839      851.79337      28375.451    
    100838   2700.392      -7670.3365      0             -6972.5794     -91944.605      28375.451    
Loop time of 5.51888 on 1 procs for 838 steps with 2000 atoms

99.6% CPU use with 1 MPI tasks x 1 OpenMP threads

Minimization stats:
  Stopping criterion = linesearch alpha is zero
  Energy initial, next-to-last, final = 
     -6943.04102234431   -7670.3365116982   -7670.3365116982
  Force two-norm initial, final = 95.538948 2.2358446e-05
  Force max component initial, final = 8.7521393 3.6788662e-06
  Final line search alpha, max atom move = 0 0
  Iterations, force evaluations = 838 1489

MPI task timing breakdown:
Section |  min time  |  avg time  |  max time  |%varavg| %total
---------------------------------------------------------------
Pair    | 5.4257     | 5.4257     | 5.4257     |   0.0 | 98.31
Neigh   | 0.028968   | 0.028968   | 0.028968   |   0.0 |  0.52
Comm    | 0.023979   | 0.023979   | 0.023979   |   0.0 |  0.43
Output  | 0          | 0          | 0          |   0.0 |  0.00
Modify  | 0          | 0          | 0          |   0.0 |  0.00
Other   |            | 0.04026    |            |       |  0.73

Nlocal:           2000 ave        2000 max        2000 min
Histogram: 1 0 0 0 0 0 0 0 0 0
Nghost:           4436 ave        4436 max        4436 min
Histogram: 1 0 0 0 0 0 0 0 0 0
Neighs:         116103 ave      116103 max      116103 min
Histogram: 1 0 0 0 0 0 0 0 0 0

Total # of neighbors = 116103
Ave neighs/atom = 58.0515
Neighbor list builds = 8
Dangerous builds = 0
Total wall time: 0:06:04
