LAMMPS (29 Aug 2024)
OMP_NUM_THREADS environment is not set. Defaulting to 1 thread. (src/comm.cpp:98)
  using 1 OpenMP thread(s) per MPI task

#---------------------------- Atomic setup ------------------------------------#
units            metal
timestep         0.001
boundary         p p p
lattice          bcc 2.856
Lattice spacing in x,y,z = 2.856 2.856 2.856
region           sim_box block 0 10 0 10 0 10
create_box       1 sim_box
Created orthogonal box = (0 0 0) to (28.56 28.56 28.56)
  1 by 1 by 1 MPI processor grid
create_atoms     1 box
Created 2000 atoms
  using lattice units in orthogonal box = (0 0 0) to (28.56 28.56 28.56)
  create_atoms CPU = 0.000 seconds

pair_style       eam/fs                                             # interatomic potential (Lennard-Jones, EAM, etc.)
pair_coeff       * * ${potentials_dir}/fe_eam.fs Fe # interatomic potential parameters (ex. eam.alloy Cu_u3.eam)
pair_coeff       * * md/potentials/fe_eam.fs Fe 
pair_modify      tail yes
neigh_modify     delay 0                                                       # neighbor list update frequency (0 = every timestep)
mass             1 55.845                                                 # atomic mass
variable         rnd equal round(random(0,999999,42))

#----------------------------- Equilibriation ---------------------------------#
velocity         all create 1231.48 ${rnd} dist gaussian              # initial velocities
velocity         all create 1231.48 420940 dist gaussian              
fix              f2 all nph iso 0 0 1.0        # barostat
variable         rnd equal round(random(0,999999,0))
fix              f3 all temp/csvr 1231.48 1231.48 0.1 ${rnd} # thermostat
fix              f3 all temp/csvr 1231.48 1231.48 0.1 53464 
run              10000                                           # equilibriation run
Neighbor list info ...
  update: every = 1 steps, delay = 0 steps, check = yes
  max neighbors/atom: 2000, page size: 100000
  master list distance cutoff = 7.3
  ghost atom cutoff = 7.3
  binsize = 3.65, bins = 8 8 8
  1 neighbor lists, perpetual/occasional/extra = 1 0 0
  (1) pair eam/fs, perpetual
      attributes: half, newton on
      pair build: half/bin/atomonly/newton
      stencil: half/bin/3d
      bin: standard
Per MPI rank memory allocation (min/avg/max) = 3.94 | 3.94 | 3.94 Mbytes
   Step          Temp          E_pair         E_mol          TotEng         Press          Volume    
         0   1231.48       -8244.8637      0             -7926.6603      13328.985      23295.638    
     10000   1214.1712     -7894.8737      0             -7581.1427     -635.00806      24173.106    
Loop time of 42.2266 on 1 procs for 10000 steps with 2000 atoms

Performance: 20.461 ns/day, 1.173 hours/ns, 236.818 timesteps/s, 473.636 katom-step/s
99.5% CPU use with 1 MPI tasks x 1 OpenMP threads

MPI task timing breakdown:
Section |  min time  |  avg time  |  max time  |%varavg| %total
---------------------------------------------------------------
Pair    | 40.844     | 40.844     | 40.844     |   0.0 | 96.73
Neigh   | 0.58154    | 0.58154    | 0.58154    |   0.0 |  1.38
Comm    | 0.18329    | 0.18329    | 0.18329    |   0.0 |  0.43
Output  | 0.00018434 | 0.00018434 | 0.00018434 |   0.0 |  0.00
Modify  | 0.55696    | 0.55696    | 0.55696    |   0.0 |  1.32
Other   |            | 0.0603     |            |       |  0.14

Nlocal:           2000 ave        2000 max        2000 min
Histogram: 1 0 0 0 0 0 0 0 0 0
Nghost:           4963 ave        4963 max        4963 min
Histogram: 1 0 0 0 0 0 0 0 0 0
Neighs:         137109 ave      137109 max      137109 min
Histogram: 1 0 0 0 0 0 0 0 0 0

Total # of neighbors = 137109
Ave neighs/atom = 68.5545
Neighbor list builds = 141
Dangerous builds = 0

#----------------------------- Run simulation ---------------------------------#
dump             d1 all custom 10000 md/data/fe_bcc/dump_0.68.gz id type x y z # snapshots
run              90000
Per MPI rank memory allocation (min/avg/max) = 3.94 | 3.94 | 3.94 Mbytes
   Step          Temp          E_pair         E_mol          TotEng         Press          Volume    
     10000   1214.1712     -7894.8737      0             -7581.1427     -635.00806      24173.106    
    100000   1220.4939     -7878.7142      0             -7563.3495     -3158.9135      24256.313    
Loop time of 383.754 on 1 procs for 90000 steps with 2000 atoms

Performance: 20.263 ns/day, 1.184 hours/ns, 234.525 timesteps/s, 469.050 katom-step/s
99.5% CPU use with 1 MPI tasks x 1 OpenMP threads

MPI task timing breakdown:
Section |  min time  |  avg time  |  max time  |%varavg| %total
---------------------------------------------------------------
Pair    | 371.22     | 371.22     | 371.22     |   0.0 | 96.73
Neigh   | 5.2689     | 5.2689     | 5.2689     |   0.0 |  1.37
Comm    | 1.6466     | 1.6466     | 1.6466     |   0.0 |  0.43
Output  | 0.073011   | 0.073011   | 0.073011   |   0.0 |  0.02
Modify  | 5.0089     | 5.0089     | 5.0089     |   0.0 |  1.31
Other   |            | 0.5335     |            |       |  0.14

Nlocal:           2000 ave        2000 max        2000 min
Histogram: 1 0 0 0 0 0 0 0 0 0
Nghost:           4990 ave        4990 max        4990 min
Histogram: 1 0 0 0 0 0 0 0 0 0
Neighs:         136417 ave      136417 max      136417 min
Histogram: 1 0 0 0 0 0 0 0 0 0

Total # of neighbors = 136417
Ave neighs/atom = 68.2085
Neighbor list builds = 1274
Dangerous builds = 0
undump           d1
min_modify       line forcezero
minimize         0 0 100000 100000                                                                               # minimize energy
Per MPI rank memory allocation (min/avg/max) = 5.065 | 5.065 | 5.065 Mbytes
   Step          Temp          E_pair         E_mol          TotEng         Press          Volume    
    100000   1220.4939     -7878.7142      0             -7563.3495     -3158.9135      24256.313    
    100055   1220.4939     -8222.8815      0             -7907.5169     -56757.435      24256.313    
Loop time of 0.445046 on 1 procs for 55 steps with 2000 atoms

99.5% CPU use with 1 MPI tasks x 1 OpenMP threads

Minimization stats:
  Stopping criterion = linesearch alpha is zero
  Energy initial, next-to-last, final = 
     -7878.71421447844  -8222.88154369015  -8222.88154369015
  Force two-norm initial, final = 72.549947 2.2778247e-05
  Force max component initial, final = 3.8106259 1.5078143e-06
  Final line search alpha, max atom move = 2.1140205e-07 3.1875504e-13
  Iterations, force evaluations = 55 111

MPI task timing breakdown:
Section |  min time  |  avg time  |  max time  |%varavg| %total
---------------------------------------------------------------
Pair    | 0.44009    | 0.44009    | 0.44009    |   0.0 | 98.89
Neigh   | 0          | 0          | 0          |   0.0 |  0.00
Comm    | 0.0019862  | 0.0019862  | 0.0019862  |   0.0 |  0.45
Output  | 0          | 0          | 0          |   0.0 |  0.00
Modify  | 0          | 0          | 0          |   0.0 |  0.00
Other   |            | 0.002969   |            |       |  0.67

Nlocal:           2000 ave        2000 max        2000 min
Histogram: 1 0 0 0 0 0 0 0 0 0
Nghost:           4993 ave        4993 max        4993 min
Histogram: 1 0 0 0 0 0 0 0 0 0
Neighs:         136631 ave      136631 max      136631 min
Histogram: 1 0 0 0 0 0 0 0 0 0

Total # of neighbors = 136631
Ave neighs/atom = 68.3155
Neighbor list builds = 0
Dangerous builds = 0
write_dump       all custom md/data/fe_bcc/dump_0.68_relaxed.gz id type x y z
#------------------------------------------------------------------------------#
Total wall time: 0:07:06
