LAMMPS (29 Aug 2024)
OMP_NUM_THREADS environment is not set. Defaulting to 1 thread. (src/comm.cpp:98)
  using 1 OpenMP thread(s) per MPI task
Lattice spacing in x,y,z = 2.856 2.856 2.856
Created orthogonal box = (0 0 0) to (28.56 28.56 28.56)
  1 by 1 by 1 MPI processor grid
Created 2000 atoms
  using lattice units in orthogonal box = (0 0 0) to (28.56 28.56 28.56)
  create_atoms CPU = 0.000 seconds
Neighbor list info ...
  update: every = 1 steps, delay = 0 steps, check = yes
  max neighbors/atom: 2000, page size: 100000
  master list distance cutoff = 7.3
  ghost atom cutoff = 7.3
  binsize = 3.65, bins = 8 8 8
  1 neighbor lists, perpetual/occasional/extra = 1 0 0
  (1) pair eam/fs, perpetual
      attributes: half, newton on
      pair build: half/bin/atomonly/newton
      stencil: half/bin/3d
      bin: standard
Setting up Verlet run ...
  Unit style    : metal
  Current step  : 0
  Time step     : 0.001
Per MPI rank memory allocation (min/avg/max) = 3.94 | 3.94 | 3.94 Mbytes
   Step          Temp          E_pair         E_mol          TotEng         Press          Volume    
         0   2897.6        -8244.8637      0             -7496.1499      33068.124      23295.638    
     10000   2874.2365     -6893.6222      0             -6150.9452     -1085.8837      28718.505    
Loop time of 35.5328 on 1 procs for 10000 steps with 2000 atoms

Performance: 24.316 ns/day, 0.987 hours/ns, 281.430 timesteps/s, 562.860 katom-step/s
99.5% CPU use with 1 MPI tasks x 1 OpenMP threads

MPI task timing breakdown:
Section |  min time  |  avg time  |  max time  |%varavg| %total
---------------------------------------------------------------
Pair    | 33.808     | 33.808     | 33.808     |   0.0 | 95.15
Neigh   | 0.9312     | 0.9312     | 0.9312     |   0.0 |  2.62
Comm    | 0.17561    | 0.17561    | 0.17561    |   0.0 |  0.49
Output  | 0.00013846 | 0.00013846 | 0.00013846 |   0.0 |  0.00
Modify  | 0.55723    | 0.55723    | 0.55723    |   0.0 |  1.57
Other   |            | 0.06037    |            |       |  0.17

Nlocal:           2000 ave        2000 max        2000 min
Histogram: 1 0 0 0 0 0 0 0 0 0
Nghost:           4498 ave        4498 max        4498 min
Histogram: 1 0 0 0 0 0 0 0 0 0
Neighs:         113003 ave      113003 max      113003 min
Histogram: 1 0 0 0 0 0 0 0 0 0

Total # of neighbors = 113003
Ave neighs/atom = 56.5015
Neighbor list builds = 264
Dangerous builds = 0
Setting up Verlet run ...
  Unit style    : metal
  Current step  : 10000
  Time step     : 0.001
Per MPI rank memory allocation (min/avg/max) = 3.942 | 3.942 | 3.942 Mbytes
   Step          Temp          E_pair         E_mol          TotEng         Press          Volume    
     10000   2874.2365     -6893.6222      0             -6150.9452     -1085.8837      28718.505    
    100000   2829.2038     -6836.0337      0             -6104.9928     -3115.503       29027.112    
Loop time of 317.342 on 1 procs for 90000 steps with 2000 atoms

Performance: 24.504 ns/day, 0.979 hours/ns, 283.606 timesteps/s, 567.212 katom-step/s
99.5% CPU use with 1 MPI tasks x 1 OpenMP threads

MPI task timing breakdown:
Section |  min time  |  avg time  |  max time  |%varavg| %total
---------------------------------------------------------------
Pair    | 301.67     | 301.67     | 301.67     |   0.0 | 95.06
Neigh   | 8.4556     | 8.4556     | 8.4556     |   0.0 |  2.66
Comm    | 1.5869     | 1.5869     | 1.5869     |   0.0 |  0.50
Output  | 0.078563   | 0.078563   | 0.078563   |   0.0 |  0.02
Modify  | 5.021      | 5.021      | 5.021      |   0.0 |  1.58
Other   |            | 0.5301     |            |       |  0.17

Nlocal:           2000 ave        2000 max        2000 min
Histogram: 1 0 0 0 0 0 0 0 0 0
Nghost:           4408 ave        4408 max        4408 min
Histogram: 1 0 0 0 0 0 0 0 0 0
Neighs:         111787 ave      111787 max      111787 min
Histogram: 1 0 0 0 0 0 0 0 0 0

Total # of neighbors = 111787
Ave neighs/atom = 55.8935
Neighbor list builds = 2408
Dangerous builds = 0
Setting up cg style minimization ...
  Unit style    : metal
  Current step  : 100000
Per MPI rank memory allocation (min/avg/max) = 5.067 | 5.067 | 5.067 Mbytes
   Step          Temp          E_pair         E_mol          TotEng         Press          Volume    
    100000   2829.2038     -6836.0337      0             -6104.9928     -3115.503       29027.112    
    100966   2829.2038     -7617.008       0             -6885.9671     -98549.796      29027.112    
Loop time of 6.35045 on 1 procs for 966 steps with 2000 atoms

99.5% CPU use with 1 MPI tasks x 1 OpenMP threads

Minimization stats:
  Stopping criterion = linesearch alpha is zero
  Energy initial, next-to-last, final = 
      -6836.0336676022  -7617.00798413384  -7617.00798413384
  Force two-norm initial, final = 99.639864 2.2657362e-05
  Force max component initial, final = 6.6711671 2.3169706e-06
  Final line search alpha, max atom move = 9.439348e-07 2.1870692e-12
  Iterations, force evaluations = 966 1749

MPI task timing breakdown:
Section |  min time  |  avg time  |  max time  |%varavg| %total
---------------------------------------------------------------
Pair    | 6.2436     | 6.2436     | 6.2436     |   0.0 | 98.32
Neigh   | 0.030706   | 0.030706   | 0.030706   |   0.0 |  0.48
Comm    | 0.028307   | 0.028307   | 0.028307   |   0.0 |  0.45
Output  | 0          | 0          | 0          |   0.0 |  0.00
Modify  | 0          | 0          | 0          |   0.0 |  0.00
Other   |            | 0.04783    |            |       |  0.75

Nlocal:           2000 ave        2000 max        2000 min
Histogram: 1 0 0 0 0 0 0 0 0 0
Nghost:           4449 ave        4449 max        4449 min
Histogram: 1 0 0 0 0 0 0 0 0 0
Neighs:         113616 ave      113616 max      113616 min
Histogram: 1 0 0 0 0 0 0 0 0 0

Total # of neighbors = 113616
Ave neighs/atom = 56.808
Neighbor list builds = 9
Dangerous builds = 0
Total wall time: 0:05:59
