LAMMPS (29 Aug 2024)
OMP_NUM_THREADS environment is not set. Defaulting to 1 thread. (src/comm.cpp:98)
  using 1 OpenMP thread(s) per MPI task

#---------------------------- Atomic setup ------------------------------------#
units            metal
timestep         0.001
boundary         p p p
lattice          bcc 2.856
Lattice spacing in x,y,z = 2.856 2.856 2.856
region           sim_box block 0 10 0 10 0 10
create_box       1 sim_box
Created orthogonal box = (0 0 0) to (28.56 28.56 28.56)
  1 by 1 by 1 MPI processor grid
create_atoms     1 box
Created 2000 atoms
  using lattice units in orthogonal box = (0 0 0) to (28.56 28.56 28.56)
  create_atoms CPU = 0.000 seconds

pair_style       eam/fs                                             # interatomic potential (Lennard-Jones, EAM, etc.)
pair_coeff       * * ${potentials_dir}/fe_eam.fs Fe # interatomic potential parameters (ex. eam.alloy Cu_u3.eam)
pair_coeff       * * md/potentials/fe_eam.fs Fe 
pair_modify      tail yes
neigh_modify     delay 0                                                       # neighbor list update frequency (0 = every timestep)
mass             1 55.845                                                 # atomic mass
variable         rnd equal round(random(0,999999,42))

#----------------------------- Equilibriation ---------------------------------#
velocity         all create 1159.04 ${rnd} dist gaussian              # initial velocities
velocity         all create 1159.04 420940 dist gaussian              
fix              f2 all nph iso 0 0 1.0        # barostat
variable         rnd equal round(random(0,999999,0))
fix              f3 all temp/csvr 1159.04 1159.04 0.1 ${rnd} # thermostat
fix              f3 all temp/csvr 1159.04 1159.04 0.1 53464 
run              10000                                           # equilibriation run
Neighbor list info ...
  update: every = 1 steps, delay = 0 steps, check = yes
  max neighbors/atom: 2000, page size: 100000
  master list distance cutoff = 7.3
  ghost atom cutoff = 7.3
  binsize = 3.65, bins = 8 8 8
  1 neighbor lists, perpetual/occasional/extra = 1 0 0
  (1) pair eam/fs, perpetual
      attributes: half, newton on
      pair build: half/bin/atomonly/newton
      stencil: half/bin/3d
      bin: standard
Per MPI rank memory allocation (min/avg/max) = 3.94 | 3.94 | 3.94 Mbytes
   Step          Temp          E_pair         E_mol          TotEng         Press          Volume    
         0   1159.04       -8244.8637      0             -7945.3782      12470.762      23295.638    
     10000   1127.9618     -7912.6026      0             -7621.1474      255.40943      24076.829    
Loop time of 42.3547 on 1 procs for 10000 steps with 2000 atoms

Performance: 20.399 ns/day, 1.177 hours/ns, 236.101 timesteps/s, 472.202 katom-step/s
99.1% CPU use with 1 MPI tasks x 1 OpenMP threads

MPI task timing breakdown:
Section |  min time  |  avg time  |  max time  |%varavg| %total
---------------------------------------------------------------
Pair    | 41.002     | 41.002     | 41.002     |   0.0 | 96.81
Neigh   | 0.54788    | 0.54788    | 0.54788    |   0.0 |  1.29
Comm    | 0.18539    | 0.18539    | 0.18539    |   0.0 |  0.44
Output  | 3.8542e-05 | 3.8542e-05 | 3.8542e-05 |   0.0 |  0.00
Modify  | 0.56058    | 0.56058    | 0.56058    |   0.0 |  1.32
Other   |            | 0.05844    |            |       |  0.14

Nlocal:           2000 ave        2000 max        2000 min
Histogram: 1 0 0 0 0 0 0 0 0 0
Nghost:           4994 ave        4994 max        4994 min
Histogram: 1 0 0 0 0 0 0 0 0 0
Neighs:         137647 ave      137647 max      137647 min
Histogram: 1 0 0 0 0 0 0 0 0 0

Total # of neighbors = 137647
Ave neighs/atom = 68.8235
Neighbor list builds = 133
Dangerous builds = 0

#----------------------------- Run simulation ---------------------------------#
dump             d1 all custom 10000 md/data/fe_bcc/dump_0.64.gz id type x y z # snapshots
run              90000
Per MPI rank memory allocation (min/avg/max) = 3.94 | 3.94 | 3.94 Mbytes
   Step          Temp          E_pair         E_mol          TotEng         Press          Volume    
     10000   1127.9618     -7912.6026      0             -7621.1474      255.40943      24076.829    
    100000   1143.2488     -7900.8567      0             -7605.4515      5330.7861      24054.708    
Loop time of 382.243 on 1 procs for 90000 steps with 2000 atoms

Performance: 20.343 ns/day, 1.180 hours/ns, 235.453 timesteps/s, 470.905 katom-step/s
99.6% CPU use with 1 MPI tasks x 1 OpenMP threads

MPI task timing breakdown:
Section |  min time  |  avg time  |  max time  |%varavg| %total
---------------------------------------------------------------
Pair    | 370.12     | 370.12     | 370.12     |   0.0 | 96.83
Neigh   | 4.8844     | 4.8844     | 4.8844     |   0.0 |  1.28
Comm    | 1.6587     | 1.6587     | 1.6587     |   0.0 |  0.43
Output  | 0.071659   | 0.071659   | 0.071659   |   0.0 |  0.02
Modify  | 4.9927     | 4.9927     | 4.9927     |   0.0 |  1.31
Other   |            | 0.5189     |            |       |  0.14

Nlocal:           2000 ave        2000 max        2000 min
Histogram: 1 0 0 0 0 0 0 0 0 0
Nghost:           5039 ave        5039 max        5039 min
Histogram: 1 0 0 0 0 0 0 0 0 0
Neighs:         137823 ave      137823 max      137823 min
Histogram: 1 0 0 0 0 0 0 0 0 0

Total # of neighbors = 137823
Ave neighs/atom = 68.9115
Neighbor list builds = 1182
Dangerous builds = 0
undump           d1
min_modify       line forcezero
minimize         0 0 100000 100000                                                                               # minimize energy
Per MPI rank memory allocation (min/avg/max) = 5.065 | 5.065 | 5.065 Mbytes
   Step          Temp          E_pair         E_mol          TotEng         Press          Volume    
    100000   1143.2488     -7900.8567      0             -7605.4515      5330.7861      24054.708    
    100056   1143.2488     -8230.9147      0             -7935.5095     -43771.092      24054.708    
Loop time of 0.442568 on 1 procs for 56 steps with 2000 atoms

99.7% CPU use with 1 MPI tasks x 1 OpenMP threads

Minimization stats:
  Stopping criterion = linesearch alpha is zero
  Energy initial, next-to-last, final = 
     -7900.85674449604  -8230.91468292948  -8230.91468292948
  Force two-norm initial, final = 71.884279 1.6945757e-05
  Force max component initial, final = 3.8224425 9.3921912e-07
  Final line search alpha, max atom move = 0.011492412 1.0793893e-08
  Iterations, force evaluations = 56 111

MPI task timing breakdown:
Section |  min time  |  avg time  |  max time  |%varavg| %total
---------------------------------------------------------------
Pair    | 0.43767    | 0.43767    | 0.43767    |   0.0 | 98.89
Neigh   | 0          | 0          | 0          |   0.0 |  0.00
Comm    | 0.0019955  | 0.0019955  | 0.0019955  |   0.0 |  0.45
Output  | 0          | 0          | 0          |   0.0 |  0.00
Modify  | 0          | 0          | 0          |   0.0 |  0.00
Other   |            | 0.0029     |            |       |  0.66

Nlocal:           2000 ave        2000 max        2000 min
Histogram: 1 0 0 0 0 0 0 0 0 0
Nghost:           5040 ave        5040 max        5040 min
Histogram: 1 0 0 0 0 0 0 0 0 0
Neighs:         137868 ave      137868 max      137868 min
Histogram: 1 0 0 0 0 0 0 0 0 0

Total # of neighbors = 137868
Ave neighs/atom = 68.934
Neighbor list builds = 0
Dangerous builds = 0
write_dump       all custom md/data/fe_bcc/dump_0.64_relaxed.gz id type x y z
#------------------------------------------------------------------------------#
Total wall time: 0:07:05
