LAMMPS (29 Aug 2024)
OMP_NUM_THREADS environment is not set. Defaulting to 1 thread. (src/comm.cpp:98)
  using 1 OpenMP thread(s) per MPI task
Lattice spacing in x,y,z = 2.856 2.856 2.856
Created orthogonal box = (0 0 0) to (28.56 28.56 28.56)
  1 by 1 by 1 MPI processor grid
Created 2000 atoms
  using lattice units in orthogonal box = (0 0 0) to (28.56 28.56 28.56)
  create_atoms CPU = 0.000 seconds
Neighbor list info ...
  update: every = 1 steps, delay = 0 steps, check = yes
  max neighbors/atom: 2000, page size: 100000
  master list distance cutoff = 7.3
  ghost atom cutoff = 7.3
  binsize = 3.65, bins = 8 8 8
  1 neighbor lists, perpetual/occasional/extra = 1 0 0
  (1) pair eam/fs, perpetual
      attributes: half, newton on
      pair build: half/bin/atomonly/newton
      stencil: half/bin/3d
      bin: standard
Setting up Verlet run ...
  Unit style    : metal
  Current step  : 0
  Time step     : 0.001
Per MPI rank memory allocation (min/avg/max) = 3.94 | 3.94 | 3.94 Mbytes
   Step          Temp          E_pair         E_mol          TotEng         Press          Volume    
         0   217.32        -8244.8637      0             -8188.7102      1313.8575      23295.638    
     10000   209.89676     -8186.8081      0             -8132.5727      886.02888      23313.651    
Loop time of 31.8107 on 1 procs for 10000 steps with 2000 atoms

Performance: 27.161 ns/day, 0.884 hours/ns, 314.360 timesteps/s, 628.719 katom-step/s
99.5% CPU use with 1 MPI tasks x 1 OpenMP threads

MPI task timing breakdown:
Section |  min time  |  avg time  |  max time  |%varavg| %total
---------------------------------------------------------------
Pair    | 31.007     | 31.007     | 31.007     |   0.0 | 97.47
Neigh   | 0          | 0          | 0          |   0.0 |  0.00
Comm    | 0.18811    | 0.18811    | 0.18811    |   0.0 |  0.59
Output  | 3.6067e-05 | 3.6067e-05 | 3.6067e-05 |   0.0 |  0.00
Modify  | 0.55529    | 0.55529    | 0.55529    |   0.0 |  1.75
Other   |            | 0.05999    |            |       |  0.19

Nlocal:           2000 ave        2000 max        2000 min
Histogram: 1 0 0 0 0 0 0 0 0 0
Nghost:           5471 ave        5471 max        5471 min
Histogram: 1 0 0 0 0 0 0 0 0 0
Neighs:         136000 ave      136000 max      136000 min
Histogram: 1 0 0 0 0 0 0 0 0 0

Total # of neighbors = 136000
Ave neighs/atom = 68
Neighbor list builds = 0
Dangerous builds = 0
Setting up Verlet run ...
  Unit style    : metal
  Current step  : 10000
  Time step     : 0.001
Per MPI rank memory allocation (min/avg/max) = 3.94 | 3.94 | 3.94 Mbytes
   Step          Temp          E_pair         E_mol          TotEng         Press          Volume    
     10000   209.89676     -8186.8081      0             -8132.5727      886.02888      23313.651    
    100000   211.1414      -8184.6117      0             -8130.0547      1254.5831      23307.33     
Loop time of 337.805 on 1 procs for 90000 steps with 2000 atoms

Performance: 23.019 ns/day, 1.043 hours/ns, 266.426 timesteps/s, 532.852 katom-step/s
99.6% CPU use with 1 MPI tasks x 1 OpenMP threads

MPI task timing breakdown:
Section |  min time  |  avg time  |  max time  |%varavg| %total
---------------------------------------------------------------
Pair    | 330.51     | 330.51     | 330.51     |   0.0 | 97.84
Neigh   | 0          | 0          | 0          |   0.0 |  0.00
Comm    | 1.6987     | 1.6987     | 1.6987     |   0.0 |  0.50
Output  | 0.072308   | 0.072308   | 0.072308   |   0.0 |  0.02
Modify  | 4.998      | 4.998      | 4.998      |   0.0 |  1.48
Other   |            | 0.5271     |            |       |  0.16

Nlocal:           2000 ave        2000 max        2000 min
Histogram: 1 0 0 0 0 0 0 0 0 0
Nghost:           5465 ave        5465 max        5465 min
Histogram: 1 0 0 0 0 0 0 0 0 0
Neighs:         137895 ave      137895 max      137895 min
Histogram: 1 0 0 0 0 0 0 0 0 0

Total # of neighbors = 137895
Ave neighs/atom = 68.9475
Neighbor list builds = 0
Dangerous builds = 0
Setting up cg style minimization ...
  Unit style    : metal
  Current step  : 100000
Per MPI rank memory allocation (min/avg/max) = 5.065 | 5.065 | 5.065 Mbytes
   Step          Temp          E_pair         E_mol          TotEng         Press          Volume    
    100000   211.1414      -8184.6117      0             -8130.0547      1254.5831      23307.33     
    100049   211.1414      -8244.8512      0             -8190.2942      348.5779       23307.33     
Loop time of 0.394595 on 1 procs for 49 steps with 2000 atoms

99.6% CPU use with 1 MPI tasks x 1 OpenMP threads

Minimization stats:
  Stopping criterion = linesearch alpha is zero
  Energy initial, next-to-last, final = 
     -8184.61171049748  -8244.85124684732  -8244.85124684732
  Force two-norm initial, final = 32.806527 1.1134444e-05
  Force max component initial, final = 1.6364989 5.4034632e-07
  Final line search alpha, max atom move = 0.0013668401 7.3856703e-10
  Iterations, force evaluations = 49 105

MPI task timing breakdown:
Section |  min time  |  avg time  |  max time  |%varavg| %total
---------------------------------------------------------------
Pair    | 0.3899     | 0.3899     | 0.3899     |   0.0 | 98.81
Neigh   | 0          | 0          | 0          |   0.0 |  0.00
Comm    | 0.0020247  | 0.0020247  | 0.0020247  |   0.0 |  0.51
Output  | 0          | 0          | 0          |   0.0 |  0.00
Modify  | 0          | 0          | 0          |   0.0 |  0.00
Other   |            | 0.002669   |            |       |  0.68

Nlocal:           2000 ave        2000 max        2000 min
Histogram: 1 0 0 0 0 0 0 0 0 0
Nghost:           5467 ave        5467 max        5467 min
Histogram: 1 0 0 0 0 0 0 0 0 0
Neighs:         138253 ave      138253 max      138253 min
Histogram: 1 0 0 0 0 0 0 0 0 0

Total # of neighbors = 138253
Ave neighs/atom = 69.1265
Neighbor list builds = 0
Dangerous builds = 0
Total wall time: 0:06:10
