LAMMPS (29 Aug 2024)
OMP_NUM_THREADS environment is not set. Defaulting to 1 thread. (src/comm.cpp:98)
  using 1 OpenMP thread(s) per MPI task
Lattice spacing in x,y,z = 2.856 2.856 2.856
Created orthogonal box = (0 0 0) to (28.56 28.56 28.56)
  1 by 1 by 1 MPI processor grid
Created 2000 atoms
  using lattice units in orthogonal box = (0 0 0) to (28.56 28.56 28.56)
  create_atoms CPU = 0.000 seconds
Neighbor list info ...
  update: every = 1 steps, delay = 0 steps, check = yes
  max neighbors/atom: 2000, page size: 100000
  master list distance cutoff = 7.3
  ghost atom cutoff = 7.3
  binsize = 3.65, bins = 8 8 8
  1 neighbor lists, perpetual/occasional/extra = 1 0 0
  (1) pair eam/fs, perpetual
      attributes: half, newton on
      pair build: half/bin/atomonly/newton
      stencil: half/bin/3d
      bin: standard
Setting up Verlet run ...
  Unit style    : metal
  Current step  : 0
  Time step     : 0.001
Per MPI rank memory allocation (min/avg/max) = 3.94 | 3.94 | 3.94 Mbytes
   Step          Temp          E_pair         E_mol          TotEng         Press          Volume    
         0   1666.12       -8244.8637      0             -7814.3532      18478.326      23295.638    
     10000   1658.2763     -7743.0149      0             -7314.5312     -812.08848      24719.347    
Loop time of 41.9283 on 1 procs for 10000 steps with 2000 atoms

Performance: 20.607 ns/day, 1.165 hours/ns, 238.502 timesteps/s, 477.005 katom-step/s
99.5% CPU use with 1 MPI tasks x 1 OpenMP threads

MPI task timing breakdown:
Section |  min time  |  avg time  |  max time  |%varavg| %total
---------------------------------------------------------------
Pair    | 40.38      | 40.38      | 40.38      |   0.0 | 96.31
Neigh   | 0.75043    | 0.75043    | 0.75043    |   0.0 |  1.79
Comm    | 0.18046    | 0.18046    | 0.18046    |   0.0 |  0.43
Output  | 3.9764e-05 | 3.9764e-05 | 3.9764e-05 |   0.0 |  0.00
Modify  | 0.55798    | 0.55798    | 0.55798    |   0.0 |  1.33
Other   |            | 0.05985    |            |       |  0.14

Nlocal:           2000 ave        2000 max        2000 min
Histogram: 1 0 0 0 0 0 0 0 0 0
Nghost:           4757 ave        4757 max        4757 min
Histogram: 1 0 0 0 0 0 0 0 0 0
Neighs:         134155 ave      134155 max      134155 min
Histogram: 1 0 0 0 0 0 0 0 0 0

Total # of neighbors = 134155
Ave neighs/atom = 67.0775
Neighbor list builds = 182
Dangerous builds = 0
Setting up Verlet run ...
  Unit style    : metal
  Current step  : 10000
  Time step     : 0.001
Per MPI rank memory allocation (min/avg/max) = 3.942 | 3.942 | 3.942 Mbytes
   Step          Temp          E_pair         E_mol          TotEng         Press          Volume    
     10000   1658.2763     -7743.0149      0             -7314.5312     -812.08848      24719.347    
    100000   1671.4692     -7724.7162      0             -7292.8235     -2450.7894      24840.66     
Loop time of 376.41 on 1 procs for 90000 steps with 2000 atoms

Performance: 20.658 ns/day, 1.162 hours/ns, 239.101 timesteps/s, 478.202 katom-step/s
99.5% CPU use with 1 MPI tasks x 1 OpenMP threads

MPI task timing breakdown:
Section |  min time  |  avg time  |  max time  |%varavg| %total
---------------------------------------------------------------
Pair    | 362.27     | 362.27     | 362.27     |   0.0 | 96.24
Neigh   | 6.8969     | 6.8969     | 6.8969     |   0.0 |  1.83
Comm    | 1.619      | 1.619      | 1.619      |   0.0 |  0.43
Output  | 0.072142   | 0.072142   | 0.072142   |   0.0 |  0.02
Modify  | 5.0167     | 5.0167     | 5.0167     |   0.0 |  1.33
Other   |            | 0.5378     |            |       |  0.14

Nlocal:           2000 ave        2000 max        2000 min
Histogram: 1 0 0 0 0 0 0 0 0 0
Nghost:           4782 ave        4782 max        4782 min
Histogram: 1 0 0 0 0 0 0 0 0 0
Neighs:         133332 ave      133332 max      133332 min
Histogram: 1 0 0 0 0 0 0 0 0 0

Total # of neighbors = 133332
Ave neighs/atom = 66.666
Neighbor list builds = 1671
Dangerous builds = 0
Setting up cg style minimization ...
  Unit style    : metal
  Current step  : 100000
Per MPI rank memory allocation (min/avg/max) = 5.072 | 5.072 | 5.072 Mbytes
   Step          Temp          E_pair         E_mol          TotEng         Press          Volume    
    100000   1671.4692     -7724.7162      0             -7292.8235     -2450.7894      24840.66     
    100068   1671.4692     -8190.515       0             -7758.6224     -87100.915      24840.66     
Loop time of 0.506039 on 1 procs for 68 steps with 2000 atoms

99.6% CPU use with 1 MPI tasks x 1 OpenMP threads

Minimization stats:
  Stopping criterion = linesearch alpha is zero
  Energy initial, next-to-last, final = 
     -7724.71619009619  -8190.51500655229  -8190.51500655229
  Force two-norm initial, final = 82.553176 1.2834724e-05
  Force max component initial, final = 4.3715734 6.3803661e-07
  Final line search alpha, max atom move = 0.00017091411 1.0904946e-10
  Iterations, force evaluations = 68 124

MPI task timing breakdown:
Section |  min time  |  avg time  |  max time  |%varavg| %total
---------------------------------------------------------------
Pair    | 0.49625    | 0.49625    | 0.49625    |   0.0 | 98.07
Neigh   | 0.0040656  | 0.0040656  | 0.0040656  |   0.0 |  0.80
Comm    | 0.0022192  | 0.0022192  | 0.0022192  |   0.0 |  0.44
Output  | 0          | 0          | 0          |   0.0 |  0.00
Modify  | 0          | 0          | 0          |   0.0 |  0.00
Other   |            | 0.003502   |            |       |  0.69

Nlocal:           2000 ave        2000 max        2000 min
Histogram: 1 0 0 0 0 0 0 0 0 0
Nghost:           4762 ave        4762 max        4762 min
Histogram: 1 0 0 0 0 0 0 0 0 0
Neighs:         136000 ave      136000 max      136000 min
Histogram: 1 0 0 0 0 0 0 0 0 0

Total # of neighbors = 136000
Ave neighs/atom = 68
Neighbor list builds = 1
Dangerous builds = 0
Total wall time: 0:06:58
