LAMMPS (29 Aug 2024)
OMP_NUM_THREADS environment is not set. Defaulting to 1 thread. (src/comm.cpp:98)
  using 1 OpenMP thread(s) per MPI task

#---------------------------- Atomic setup ------------------------------------#
units            metal
timestep         0.001
boundary         p p p
lattice          bcc 2.856
Lattice spacing in x,y,z = 2.856 2.856 2.856
region           sim_box block 0 10 0 10 0 10
create_box       1 sim_box
Created orthogonal box = (0 0 0) to (28.56 28.56 28.56)
  1 by 1 by 1 MPI processor grid
create_atoms     1 box
Created 2000 atoms
  using lattice units in orthogonal box = (0 0 0) to (28.56 28.56 28.56)
  create_atoms CPU = 0.000 seconds

pair_style       eam/fs                                             # interatomic potential (Lennard-Jones, EAM, etc.)
pair_coeff       * * ${potentials_dir}/fe_eam.fs Fe # interatomic potential parameters (ex. eam.alloy Cu_u3.eam)
pair_coeff       * * md/potentials/fe_eam.fs Fe 
pair_modify      tail yes
neigh_modify     delay 0                                                       # neighbor list update frequency (0 = every timestep)
mass             1 55.845                                                 # atomic mass
variable         rnd equal round(random(0,999999,42))

#----------------------------- Equilibriation ---------------------------------#
velocity         all create 2390.52 ${rnd} dist gaussian              # initial velocities
velocity         all create 2390.52 420940 dist gaussian              
fix              f2 all nph iso 0 0 1.0        # barostat
variable         rnd equal round(random(0,999999,0))
fix              f3 all temp/csvr 2390.52 2390.52 0.1 ${rnd} # thermostat
fix              f3 all temp/csvr 2390.52 2390.52 0.1 53464 
run              10000                                           # equilibriation run
Neighbor list info ...
  update: every = 1 steps, delay = 0 steps, check = yes
  max neighbors/atom: 2000, page size: 100000
  master list distance cutoff = 7.3
  ghost atom cutoff = 7.3
  binsize = 3.65, bins = 8 8 8
  1 neighbor lists, perpetual/occasional/extra = 1 0 0
  (1) pair eam/fs, perpetual
      attributes: half, newton on
      pair build: half/bin/atomonly/newton
      stencil: half/bin/3d
      bin: standard
Per MPI rank memory allocation (min/avg/max) = 3.94 | 3.94 | 3.94 Mbytes
   Step          Temp          E_pair         E_mol          TotEng         Press          Volume    
         0   2390.52       -8244.8637      0             -7627.1748      27060.56       23295.638    
     10000   2384.2813     -7103.2398      0             -6487.1629      4087.5534      27384.828    
Loop time of 37.0617 on 1 procs for 10000 steps with 2000 atoms

Performance: 23.312 ns/day, 1.029 hours/ns, 269.820 timesteps/s, 539.640 katom-step/s
99.5% CPU use with 1 MPI tasks x 1 OpenMP threads

MPI task timing breakdown:
Section |  min time  |  avg time  |  max time  |%varavg| %total
---------------------------------------------------------------
Pair    | 35.432     | 35.432     | 35.432     |   0.0 | 95.60
Neigh   | 0.83486    | 0.83486    | 0.83486    |   0.0 |  2.25
Comm    | 0.17739    | 0.17739    | 0.17739    |   0.0 |  0.48
Output  | 0.00013996 | 0.00013996 | 0.00013996 |   0.0 |  0.00
Modify  | 0.55782    | 0.55782    | 0.55782    |   0.0 |  1.51
Other   |            | 0.05907    |            |       |  0.16

Nlocal:           2000 ave        2000 max        2000 min
Histogram: 1 0 0 0 0 0 0 0 0 0
Nghost:           4558 ave        4558 max        4558 min
Histogram: 1 0 0 0 0 0 0 0 0 0
Neighs:         118894 ave      118894 max      118894 min
Histogram: 1 0 0 0 0 0 0 0 0 0

Total # of neighbors = 118894
Ave neighs/atom = 59.447
Neighbor list builds = 236
Dangerous builds = 0

#----------------------------- Run simulation ---------------------------------#
dump             d1 all custom 10000 md/data/fe_bcc/dump_1.32.gz id type x y z # snapshots
run              90000
Per MPI rank memory allocation (min/avg/max) = 3.942 | 3.942 | 3.942 Mbytes
   Step          Temp          E_pair         E_mol          TotEng         Press          Volume    
     10000   2384.2813     -7103.2398      0             -6487.1629      4087.5534      27384.828    
    100000   2320.4604     -7041.964       0             -6442.3778     -2508.7832      27773.589    
Loop time of 328.512 on 1 procs for 90000 steps with 2000 atoms

Performance: 23.670 ns/day, 1.014 hours/ns, 273.962 timesteps/s, 547.925 katom-step/s
99.5% CPU use with 1 MPI tasks x 1 OpenMP threads

MPI task timing breakdown:
Section |  min time  |  avg time  |  max time  |%varavg| %total
---------------------------------------------------------------
Pair    | 313.74     | 313.74     | 313.74     |   0.0 | 95.50
Neigh   | 7.5971     | 7.5971     | 7.5971     |   0.0 |  2.31
Comm    | 1.5747     | 1.5747     | 1.5747     |   0.0 |  0.48
Output  | 0.079455   | 0.079455   | 0.079455   |   0.0 |  0.02
Modify  | 4.9925     | 4.9925     | 4.9925     |   0.0 |  1.52
Other   |            | 0.5263     |            |       |  0.16

Nlocal:           2000 ave        2000 max        2000 min
Histogram: 1 0 0 0 0 0 0 0 0 0
Nghost:           4522 ave        4522 max        4522 min
Histogram: 1 0 0 0 0 0 0 0 0 0
Neighs:         117276 ave      117276 max      117276 min
Histogram: 1 0 0 0 0 0 0 0 0 0

Total # of neighbors = 117276
Ave neighs/atom = 58.638
Neighbor list builds = 2158
Dangerous builds = 0
undump           d1
min_modify       line forcezero
minimize         0 0 100000 100000                                                                               # minimize energy
Per MPI rank memory allocation (min/avg/max) = 5.067 | 5.067 | 5.067 Mbytes
   Step          Temp          E_pair         E_mol          TotEng         Press          Volume    
    100000   2320.4604     -7041.964       0             -6442.3778     -2508.7832      27773.589    
    100723   2320.4604     -7732.1252      0             -7132.539      -89503.888      27773.589    
Loop time of 4.58048 on 1 procs for 723 steps with 2000 atoms

99.5% CPU use with 1 MPI tasks x 1 OpenMP threads

Minimization stats:
  Stopping criterion = linesearch alpha is zero
  Energy initial, next-to-last, final = 
     -7041.96398766382  -7732.12518765667  -7732.12518765667
  Force two-norm initial, final = 92.610734 2.1669639e-05
  Force max component initial, final = 5.6113605 5.4164717e-06
  Final line search alpha, max atom move = 1.6932344e-07 9.1713562e-13
  Iterations, force evaluations = 723 1207

MPI task timing breakdown:
Section |  min time  |  avg time  |  max time  |%varavg| %total
---------------------------------------------------------------
Pair    | 4.4913     | 4.4913     | 4.4913     |   0.0 | 98.05
Neigh   | 0.034613   | 0.034613   | 0.034613   |   0.0 |  0.76
Comm    | 0.020278   | 0.020278   | 0.020278   |   0.0 |  0.44
Output  | 0          | 0          | 0          |   0.0 |  0.00
Modify  | 0          | 0          | 0          |   0.0 |  0.00
Other   |            | 0.03433    |            |       |  0.75

Nlocal:           2000 ave        2000 max        2000 min
Histogram: 1 0 0 0 0 0 0 0 0 0
Nghost:           4536 ave        4536 max        4536 min
Histogram: 1 0 0 0 0 0 0 0 0 0
Neighs:         118701 ave      118701 max      118701 min
Histogram: 1 0 0 0 0 0 0 0 0 0

Total # of neighbors = 118701
Ave neighs/atom = 59.3505
Neighbor list builds = 10
Dangerous builds = 0
write_dump       all custom md/data/fe_bcc/dump_1.32_relaxed.gz id type x y z
#------------------------------------------------------------------------------#
Total wall time: 0:06:10
