LAMMPS (29 Aug 2024)
OMP_NUM_THREADS environment is not set. Defaulting to 1 thread. (src/comm.cpp:98)
  using 1 OpenMP thread(s) per MPI task

#---------------------------- Atomic setup ------------------------------------#
units            metal
timestep         0.001
boundary         p p p
lattice          bcc 2.856
Lattice spacing in x,y,z = 2.856 2.856 2.856
region           sim_box block 0 10 0 10 0 10
create_box       1 sim_box
Created orthogonal box = (0 0 0) to (28.56 28.56 28.56)
  1 by 1 by 1 MPI processor grid
create_atoms     1 box
Created 2000 atoms
  using lattice units in orthogonal box = (0 0 0) to (28.56 28.56 28.56)
  create_atoms CPU = 0.000 seconds

pair_style       eam/fs                                             # interatomic potential (Lennard-Jones, EAM, etc.)
pair_coeff       * * ${potentials_dir}/fe_eam.fs Fe # interatomic potential parameters (ex. eam.alloy Cu_u3.eam)
pair_coeff       * * md/potentials/fe_eam.fs Fe 
pair_modify      tail yes
neigh_modify     delay 0                                                       # neighbor list update frequency (0 = every timestep)
mass             1 55.845                                                 # atomic mass
variable         rnd equal round(random(0,999999,42))

#----------------------------- Equilibriation ---------------------------------#
velocity         all create 941.72 ${rnd} dist gaussian              # initial velocities
velocity         all create 941.72 420940 dist gaussian              
fix              f2 all nph iso 0 0 1.0        # barostat
variable         rnd equal round(random(0,999999,0))
fix              f3 all temp/csvr 941.72 941.72 0.1 ${rnd} # thermostat
fix              f3 all temp/csvr 941.72 941.72 0.1 53464 
run              10000                                           # equilibriation run
Neighbor list info ...
  update: every = 1 steps, delay = 0 steps, check = yes
  max neighbors/atom: 2000, page size: 100000
  master list distance cutoff = 7.3
  ghost atom cutoff = 7.3
  binsize = 3.65, bins = 8 8 8
  1 neighbor lists, perpetual/occasional/extra = 1 0 0
  (1) pair eam/fs, perpetual
      attributes: half, newton on
      pair build: half/bin/atomonly/newton
      stencil: half/bin/3d
      bin: standard
Per MPI rank memory allocation (min/avg/max) = 3.94 | 3.94 | 3.94 Mbytes
   Step          Temp          E_pair         E_mol          TotEng         Press          Volume    
         0   941.72        -8244.8637      0             -8001.5317      9896.0917      23295.638    
     10000   909.04798     -7978.6727      0             -7743.7828     -878.41768      23875.482    
Loop time of 41.5785 on 1 procs for 10000 steps with 2000 atoms

Performance: 20.780 ns/day, 1.155 hours/ns, 240.509 timesteps/s, 481.018 katom-step/s
99.5% CPU use with 1 MPI tasks x 1 OpenMP threads

MPI task timing breakdown:
Section |  min time  |  avg time  |  max time  |%varavg| %total
---------------------------------------------------------------
Pair    | 40.585     | 40.585     | 40.585     |   0.0 | 97.61
Neigh   | 0.19278    | 0.19278    | 0.19278    |   0.0 |  0.46
Comm    | 0.18229    | 0.18229    | 0.18229    |   0.0 |  0.44
Output  | 4.1678e-05 | 4.1678e-05 | 4.1678e-05 |   0.0 |  0.00
Modify  | 0.55954    | 0.55954    | 0.55954    |   0.0 |  1.35
Other   |            | 0.05837    |            |       |  0.14

Nlocal:           2000 ave        2000 max        2000 min
Histogram: 1 0 0 0 0 0 0 0 0 0
Nghost:           5094 ave        5094 max        5094 min
Histogram: 1 0 0 0 0 0 0 0 0 0
Neighs:         138409 ave      138409 max      138409 min
Histogram: 1 0 0 0 0 0 0 0 0 0

Total # of neighbors = 138409
Ave neighs/atom = 69.2045
Neighbor list builds = 47
Dangerous builds = 0

#----------------------------- Run simulation ---------------------------------#
dump             d1 all custom 10000 md/data/fe_bcc/dump_0.52.gz id type x y z # snapshots
run              90000
Per MPI rank memory allocation (min/avg/max) = 3.94 | 3.94 | 3.94 Mbytes
   Step          Temp          E_pair         E_mol          TotEng         Press          Volume    
     10000   909.04798     -7978.6727      0             -7743.7828     -878.41768      23875.482    
    100000   950.48779     -7978.3563      0             -7732.7588     -603.42444      23877.416    
Loop time of 377.117 on 1 procs for 90000 steps with 2000 atoms

Performance: 20.620 ns/day, 1.164 hours/ns, 238.653 timesteps/s, 477.305 katom-step/s
99.6% CPU use with 1 MPI tasks x 1 OpenMP threads

MPI task timing breakdown:
Section |  min time  |  avg time  |  max time  |%varavg| %total
---------------------------------------------------------------
Pair    | 368.83     | 368.83     | 368.83     |   0.0 | 97.80
Neigh   | 1.0527     | 1.0527     | 1.0527     |   0.0 |  0.28
Comm    | 1.6271     | 1.6271     | 1.6271     |   0.0 |  0.43
Output  | 0.072465   | 0.072465   | 0.072465   |   0.0 |  0.02
Modify  | 5.002      | 5.002      | 5.002      |   0.0 |  1.33
Other   |            | 0.5324     |            |       |  0.14

Nlocal:           2000 ave        2000 max        2000 min
Histogram: 1 0 0 0 0 0 0 0 0 0
Nghost:           5130 ave        5130 max        5130 min
Histogram: 1 0 0 0 0 0 0 0 0 0
Neighs:         138742 ave      138742 max      138742 min
Histogram: 1 0 0 0 0 0 0 0 0 0

Total # of neighbors = 138742
Ave neighs/atom = 69.371
Neighbor list builds = 256
Dangerous builds = 0
undump           d1
min_modify       line forcezero
minimize         0 0 100000 100000                                                                               # minimize energy
Per MPI rank memory allocation (min/avg/max) = 5.065 | 5.065 | 5.065 Mbytes
   Step          Temp          E_pair         E_mol          TotEng         Press          Volume    
    100000   950.48779     -7978.3563      0             -7732.7588     -603.42444      23877.416    
    100051   950.48779     -8236.5147      0             -7990.9172     -33300.739      23877.416    
Loop time of 0.444903 on 1 procs for 51 steps with 2000 atoms

99.6% CPU use with 1 MPI tasks x 1 OpenMP threads

Minimization stats:
  Stopping criterion = linesearch alpha is zero
  Energy initial, next-to-last, final = 
     -7978.35633886509   -8236.5146777691   -8236.5146777691
  Force two-norm initial, final = 64.552057 4.7098936e-05
  Force max component initial, final = 3.4034001 2.2693113e-06
  Final line search alpha, max atom move = 0 0
  Iterations, force evaluations = 51 112

MPI task timing breakdown:
Section |  min time  |  avg time  |  max time  |%varavg| %total
---------------------------------------------------------------
Pair    | 0.44004    | 0.44004    | 0.44004    |   0.0 | 98.91
Neigh   | 0          | 0          | 0          |   0.0 |  0.00
Comm    | 0.0019969  | 0.0019969  | 0.0019969  |   0.0 |  0.45
Output  | 0          | 0          | 0          |   0.0 |  0.00
Modify  | 0          | 0          | 0          |   0.0 |  0.00
Other   |            | 0.002863   |            |       |  0.64

Nlocal:           2000 ave        2000 max        2000 min
Histogram: 1 0 0 0 0 0 0 0 0 0
Nghost:           5097 ave        5097 max        5097 min
Histogram: 1 0 0 0 0 0 0 0 0 0
Neighs:         138672 ave      138672 max      138672 min
Histogram: 1 0 0 0 0 0 0 0 0 0

Total # of neighbors = 138672
Ave neighs/atom = 69.336
Neighbor list builds = 0
Dangerous builds = 0
write_dump       all custom md/data/fe_bcc/dump_0.52_relaxed.gz id type x y z
#------------------------------------------------------------------------------#
Total wall time: 0:06:59
