LAMMPS (29 Aug 2024)
OMP_NUM_THREADS environment is not set. Defaulting to 1 thread. (src/comm.cpp:98)
  using 1 OpenMP thread(s) per MPI task

#---------------------------- Atomic setup ------------------------------------#
units            metal
timestep         0.001
boundary         p p p
lattice          bcc 2.856
Lattice spacing in x,y,z = 2.856 2.856 2.856
region           sim_box block 0 10 0 10 0 10
create_box       1 sim_box
Created orthogonal box = (0 0 0) to (28.56 28.56 28.56)
  1 by 1 by 1 MPI processor grid
create_atoms     1 box
Created 2000 atoms
  using lattice units in orthogonal box = (0 0 0) to (28.56 28.56 28.56)
  create_atoms CPU = 0.000 seconds

pair_style       eam/fs                                             # interatomic potential (Lennard-Jones, EAM, etc.)
pair_coeff       * * ${potentials_dir}/fe_eam.fs Fe # interatomic potential parameters (ex. eam.alloy Cu_u3.eam)
pair_coeff       * * md/potentials/fe_eam.fs Fe 
pair_modify      tail yes
neigh_modify     delay 0                                                       # neighbor list update frequency (0 = every timestep)
mass             1 55.845                                                 # atomic mass
variable         rnd equal round(random(0,999999,42))

#----------------------------- Equilibriation ---------------------------------#
velocity         all create 2028.3200000000002 ${rnd} dist gaussian              # initial velocities
velocity         all create 2028.3200000000002 420940 dist gaussian              
fix              f2 all nph iso 0 0 1.0        # barostat
variable         rnd equal round(random(0,999999,0))
fix              f3 all temp/csvr 2028.3200000000002 2028.3200000000002 0.1 ${rnd} # thermostat
fix              f3 all temp/csvr 2028.3200000000002 2028.3200000000002 0.1 53464 
run              10000                                           # equilibriation run
Neighbor list info ...
  update: every = 1 steps, delay = 0 steps, check = yes
  max neighbors/atom: 2000, page size: 100000
  master list distance cutoff = 7.3
  ghost atom cutoff = 7.3
  binsize = 3.65, bins = 8 8 8
  1 neighbor lists, perpetual/occasional/extra = 1 0 0
  (1) pair eam/fs, perpetual
      attributes: half, newton on
      pair build: half/bin/atomonly/newton
      stencil: half/bin/3d
      bin: standard
Per MPI rank memory allocation (min/avg/max) = 3.94 | 3.94 | 3.94 Mbytes
   Step          Temp          E_pair         E_mol          TotEng         Press          Volume    
         0   2028.32       -8244.8637      0             -7720.764       22769.443      23295.638    
     10000   1980.6145     -7540.3731      0             -7028.6001      1401.5476      25458.322    
Loop time of 40.3933 on 1 procs for 10000 steps with 2000 atoms

Performance: 21.390 ns/day, 1.122 hours/ns, 247.566 timesteps/s, 495.131 katom-step/s
99.5% CPU use with 1 MPI tasks x 1 OpenMP threads

MPI task timing breakdown:
Section |  min time  |  avg time  |  max time  |%varavg| %total
---------------------------------------------------------------
Pair    | 38.837     | 38.837     | 38.837     |   0.0 | 96.15
Neigh   | 0.76017    | 0.76017    | 0.76017    |   0.0 |  1.88
Comm    | 0.17919    | 0.17919    | 0.17919    |   0.0 |  0.44
Output  | 0.00013785 | 0.00013785 | 0.00013785 |   0.0 |  0.00
Modify  | 0.55886    | 0.55886    | 0.55886    |   0.0 |  1.38
Other   |            | 0.05812    |            |       |  0.14

Nlocal:           2000 ave        2000 max        2000 min
Histogram: 1 0 0 0 0 0 0 0 0 0
Nghost:           4587 ave        4587 max        4587 min
Histogram: 1 0 0 0 0 0 0 0 0 0
Neighs:         130291 ave      130291 max      130291 min
Histogram: 1 0 0 0 0 0 0 0 0 0

Total # of neighbors = 130291
Ave neighs/atom = 65.1455
Neighbor list builds = 211
Dangerous builds = 0

#----------------------------- Run simulation ---------------------------------#
dump             d1 all custom 10000 md/data/fe_bcc/dump_1.12.gz id type x y z # snapshots
run              90000
Per MPI rank memory allocation (min/avg/max) = 3.942 | 3.942 | 3.942 Mbytes
   Step          Temp          E_pair         E_mol          TotEng         Press          Volume    
     10000   1980.6145     -7540.3731      0             -7028.6001      1401.5476      25458.322    
    100000   1999.6547     -7226.6532      0             -6709.9603      1648.5388      26751.597    
Loop time of 347.426 on 1 procs for 90000 steps with 2000 atoms

Performance: 22.382 ns/day, 1.072 hours/ns, 259.048 timesteps/s, 518.096 katom-step/s
99.5% CPU use with 1 MPI tasks x 1 OpenMP threads

MPI task timing breakdown:
Section |  min time  |  avg time  |  max time  |%varavg| %total
---------------------------------------------------------------
Pair    | 333.32     | 333.32     | 333.32     |   0.0 | 95.94
Neigh   | 6.9111     | 6.9111     | 6.9111     |   0.0 |  1.99
Comm    | 1.5888     | 1.5888     | 1.5888     |   0.0 |  0.46
Output  | 0.076467   | 0.076467   | 0.076467   |   0.0 |  0.02
Modify  | 5.0068     | 5.0068     | 5.0068     |   0.0 |  1.44
Other   |            | 0.5228     |            |       |  0.15

Nlocal:           2000 ave        2000 max        2000 min
Histogram: 1 0 0 0 0 0 0 0 0 0
Nghost:           4566 ave        4566 max        4566 min
Histogram: 1 0 0 0 0 0 0 0 0 0
Neighs:         122380 ave      122380 max      122380 min
Histogram: 1 0 0 0 0 0 0 0 0 0

Total # of neighbors = 122380
Ave neighs/atom = 61.19
Neighbor list builds = 1943
Dangerous builds = 0
undump           d1
min_modify       line forcezero
minimize         0 0 100000 100000                                                                               # minimize energy
Per MPI rank memory allocation (min/avg/max) = 5.067 | 5.067 | 5.067 Mbytes
   Step          Temp          E_pair         E_mol          TotEng         Press          Volume    
    100000   1999.6547     -7226.6532      0             -6709.9603      1648.5388      26751.597    
    100581   1999.6547     -7813.6342      0             -7296.9414     -72218.9        26751.597    
Loop time of 3.96838 on 1 procs for 581 steps with 2000 atoms

99.5% CPU use with 1 MPI tasks x 1 OpenMP threads

Minimization stats:
  Stopping criterion = linesearch alpha is zero
  Energy initial, next-to-last, final = 
      -7226.6531949785  -7813.63420912604  -7813.63420912604
  Force two-norm initial, final = 90.025822 3.5816973e-05
  Force max component initial, final = 6.3546918 4.887412e-06
  Final line search alpha, max atom move = 7.8180005e-06 3.8209789e-11
  Iterations, force evaluations = 581 994

MPI task timing breakdown:
Section |  min time  |  avg time  |  max time  |%varavg| %total
---------------------------------------------------------------
Pair    | 3.8954     | 3.8954     | 3.8954     |   0.0 | 98.16
Neigh   | 0.027916   | 0.027916   | 0.027916   |   0.0 |  0.70
Comm    | 0.016851   | 0.016851   | 0.016851   |   0.0 |  0.42
Output  | 0          | 0          | 0          |   0.0 |  0.00
Modify  | 0          | 0          | 0          |   0.0 |  0.00
Other   |            | 0.02822    |            |       |  0.71

Nlocal:           2000 ave        2000 max        2000 min
Histogram: 1 0 0 0 0 0 0 0 0 0
Nghost:           4590 ave        4590 max        4590 min
Histogram: 1 0 0 0 0 0 0 0 0 0
Neighs:         123499 ave      123499 max      123499 min
Histogram: 1 0 0 0 0 0 0 0 0 0

Total # of neighbors = 123499
Ave neighs/atom = 61.7495
Neighbor list builds = 8
Dangerous builds = 0
write_dump       all custom md/data/fe_bcc/dump_1.12_relaxed.gz id type x y z
#------------------------------------------------------------------------------#
Total wall time: 0:06:31
