LAMMPS (29 Aug 2024)
OMP_NUM_THREADS environment is not set. Defaulting to 1 thread. (src/comm.cpp:98)
  using 1 OpenMP thread(s) per MPI task

#---------------------------- Atomic setup ------------------------------------#
units            metal
timestep         0.001
boundary         p p p
lattice          hcp 3.2094
Lattice spacing in x,y,z = 3.2094 5.5588439 5.2409283
region           sim_box block 0 10 0 10 0 10
create_box       1 sim_box
Created orthogonal box = (0 0 0) to (32.094 55.588439 52.409283)
  1 by 1 by 1 MPI processor grid
create_atoms     1 box
Created 4000 atoms
  using lattice units in orthogonal box = (0 0 0) to (32.094 55.588439 52.409283)
  create_atoms CPU = 0.000 seconds

pair_style       eam/fs                                             # interatomic potential (Lennard-Jones, EAM, etc.)
pair_coeff       * * ${potentials_dir}/mg_eam.fs Mg # interatomic potential parameters (ex. eam.alloy Cu_u3.eam)
pair_coeff       * * md/potentials/mg_eam.fs Mg 
pair_modify      tail yes
neigh_modify     delay 0                                                       # neighbor list update frequency (0 = every timestep)
mass             1 24.305                                                 # atomic mass
variable         rnd equal round(random(0,999999,42))

#----------------------------- Equilibriation ---------------------------------#
velocity         all create 627.6400000000001 ${rnd} dist gaussian              # initial velocities
velocity         all create 627.6400000000001 420940 dist gaussian              
fix              f2 all nph iso 0 0 1.0        # barostat
variable         rnd equal round(random(0,999999,0))
fix              f3 all temp/csvr 627.6400000000001 627.6400000000001 0.1 ${rnd} # thermostat
fix              f3 all temp/csvr 627.6400000000001 627.6400000000001 0.1 53464 
run              10000                                           # equilibriation run
Neighbor list info ...
  update: every = 1 steps, delay = 0 steps, check = yes
  max neighbors/atom: 2000, page size: 100000
  master list distance cutoff = 9.5
  ghost atom cutoff = 9.5
  binsize = 4.75, bins = 7 12 12
  1 neighbor lists, perpetual/occasional/extra = 1 0 0
  (1) pair eam/fs, perpetual
      attributes: half, newton on
      pair build: half/bin/atomonly/newton
      stencil: half/bin/3d
      bin: standard
Per MPI rank memory allocation (min/avg/max) = 4.363 | 4.363 | 4.363 Mbytes
   Step          Temp          E_pair         E_mol          TotEng         Press          Volume    
         0   627.64        -6121.5966      0             -5797.1624     -5572.775       93501.061    
     10000   612.44602     -5761.969       0             -5445.3887     -15.225857      94627.556    
Loop time of 101.01 on 1 procs for 10000 steps with 4000 atoms

Performance: 8.554 ns/day, 2.806 hours/ns, 99.000 timesteps/s, 396.000 katom-step/s
99.6% CPU use with 1 MPI tasks x 1 OpenMP threads

MPI task timing breakdown:
Section |  min time  |  avg time  |  max time  |%varavg| %total
---------------------------------------------------------------
Pair    | 98.099     | 98.099     | 98.099     |   0.0 | 97.12
Neigh   | 1.4046     | 1.4046     | 1.4046     |   0.0 |  1.39
Comm    | 0.28725    | 0.28725    | 0.28725    |   0.0 |  0.28
Output  | 8.3907e-05 | 8.3907e-05 | 8.3907e-05 |   0.0 |  0.00
Modify  | 1.0983     | 1.0983     | 1.0983     |   0.0 |  1.09
Other   |            | 0.1207     |            |       |  0.12

Nlocal:           4000 ave        4000 max        4000 min
Histogram: 1 0 0 0 0 0 0 0 0 0
Nghost:           7371 ave        7371 max        7371 min
Histogram: 1 0 0 0 0 0 0 0 0 0
Neighs:         293795 ave      293795 max      293795 min
Histogram: 1 0 0 0 0 0 0 0 0 0

Total # of neighbors = 293795
Ave neighs/atom = 73.44875
Neighbor list builds = 174
Dangerous builds = 0

#----------------------------- Run simulation ---------------------------------#
dump             d1 all custom 10000 md/data/mg_hcp/dump_0.68.gz id type x y z # snapshots
run              90000
Per MPI rank memory allocation (min/avg/max) = 4.751 | 4.751 | 4.751 Mbytes
   Step          Temp          E_pair         E_mol          TotEng         Press          Volume    
     10000   612.44602     -5761.969       0             -5445.3887     -15.225857      94627.556    
    100000   624.45435     -5756.385       0             -5433.5974      563.36989      94516.939    
Loop time of 907.513 on 1 procs for 90000 steps with 4000 atoms

Performance: 8.568 ns/day, 2.801 hours/ns, 99.172 timesteps/s, 396.689 katom-step/s
99.6% CPU use with 1 MPI tasks x 1 OpenMP threads

MPI task timing breakdown:
Section |  min time  |  avg time  |  max time  |%varavg| %total
---------------------------------------------------------------
Pair    | 880.83     | 880.83     | 880.83     |   0.0 | 97.06
Neigh   | 12.964     | 12.964     | 12.964     |   0.0 |  1.43
Comm    | 2.5535     | 2.5535     | 2.5535     |   0.0 |  0.28
Output  | 0.084973   | 0.084973   | 0.084973   |   0.0 |  0.01
Modify  | 9.9026     | 9.9026     | 9.9026     |   0.0 |  1.09
Other   |            | 1.179      |            |       |  0.13

Nlocal:           4000 ave        4000 max        4000 min
Histogram: 1 0 0 0 0 0 0 0 0 0
Nghost:           7416 ave        7416 max        7416 min
Histogram: 1 0 0 0 0 0 0 0 0 0
Neighs:         294027 ave      294027 max      294027 min
Histogram: 1 0 0 0 0 0 0 0 0 0

Total # of neighbors = 294027
Ave neighs/atom = 73.50675
Neighbor list builds = 1598
Dangerous builds = 0
undump           d1
min_modify       line forcezero
minimize         0 0 100000 100000                                                                               # minimize energy
Per MPI rank memory allocation (min/avg/max) = 5.876 | 5.876 | 5.876 Mbytes
   Step          Temp          E_pair         E_mol          TotEng         Press          Volume    
    100000   624.45435     -5756.385       0             -5433.5974      563.36989      94516.939    
    100099   624.45435     -6114.4142      0             -5791.6266     -9739.5801      94516.939    
Loop time of 1.78226 on 1 procs for 99 steps with 4000 atoms

99.6% CPU use with 1 MPI tasks x 1 OpenMP threads

Minimization stats:
  Stopping criterion = linesearch alpha is zero
  Energy initial, next-to-last, final = 
     -5756.38495022486  -6114.41415725411  -6114.41415725411
  Force two-norm initial, final = 47.320546 1.8892951e-05
  Force max component initial, final = 1.83325 7.5003346e-07
  Final line search alpha, max atom move = 0.044207291 3.3156947e-08
  Iterations, force evaluations = 99 199

MPI task timing breakdown:
Section |  min time  |  avg time  |  max time  |%varavg| %total
---------------------------------------------------------------
Pair    | 1.7661     | 1.7661     | 1.7661     |   0.0 | 99.09
Neigh   | 0          | 0          | 0          |   0.0 |  0.00
Comm    | 0.0053578  | 0.0053578  | 0.0053578  |   0.0 |  0.30
Output  | 0          | 0          | 0          |   0.0 |  0.00
Modify  | 0          | 0          | 0          |   0.0 |  0.00
Other   |            | 0.01082    |            |       |  0.61

Nlocal:           4000 ave        4000 max        4000 min
Histogram: 1 0 0 0 0 0 0 0 0 0
Nghost:           7407 ave        7407 max        7407 min
Histogram: 1 0 0 0 0 0 0 0 0 0
Neighs:         294021 ave      294021 max      294021 min
Histogram: 1 0 0 0 0 0 0 0 0 0

Total # of neighbors = 294021
Ave neighs/atom = 73.50525
Neighbor list builds = 0
Dangerous builds = 0
write_dump       all custom md/data/mg_hcp/dump_0.68_relaxed.gz id type x y z
#------------------------------------------------------------------------------#
Total wall time: 0:16:50
