LAMMPS (29 Aug 2024)
OMP_NUM_THREADS environment is not set. Defaulting to 1 thread. (src/comm.cpp:98)
  using 1 OpenMP thread(s) per MPI task

#---------------------------- Atomic setup ------------------------------------#
units            metal
timestep         0.001
boundary         p p p
lattice          hcp 3.2094
Lattice spacing in x,y,z = 3.2094 5.5588439 5.2409283
region           sim_box block 0 10 0 10 0 10
create_box       1 sim_box
Created orthogonal box = (0 0 0) to (32.094 55.588439 52.409283)
  1 by 1 by 1 MPI processor grid
create_atoms     1 box
Created 4000 atoms
  using lattice units in orthogonal box = (0 0 0) to (32.094 55.588439 52.409283)
  create_atoms CPU = 0.000 seconds

pair_style       eam/fs                                             # interatomic potential (Lennard-Jones, EAM, etc.)
pair_coeff       * * ${potentials_dir}/mg_eam.fs Mg # interatomic potential parameters (ex. eam.alloy Cu_u3.eam)
pair_coeff       * * md/potentials/mg_eam.fs Mg 
pair_modify      tail yes
neigh_modify     delay 0                                                       # neighbor list update frequency (0 = every timestep)
mass             1 24.305                                                 # atomic mass
variable         rnd equal round(random(0,999999,42))

#----------------------------- Equilibriation ---------------------------------#
velocity         all create 332.28 ${rnd} dist gaussian              # initial velocities
velocity         all create 332.28 420940 dist gaussian              
fix              f2 all nph iso 0 0 1.0        # barostat
variable         rnd equal round(random(0,999999,0))
fix              f3 all temp/csvr 332.28 332.28 0.1 ${rnd} # thermostat
fix              f3 all temp/csvr 332.28 332.28 0.1 53464 
run              10000                                           # equilibriation run
Neighbor list info ...
  update: every = 1 steps, delay = 0 steps, check = yes
  max neighbors/atom: 2000, page size: 100000
  master list distance cutoff = 9.5
  ghost atom cutoff = 9.5
  binsize = 4.75, bins = 7 12 12
  1 neighbor lists, perpetual/occasional/extra = 1 0 0
  (1) pair eam/fs, perpetual
      attributes: half, newton on
      pair build: half/bin/atomonly/newton
      stencil: half/bin/3d
      bin: standard
Per MPI rank memory allocation (min/avg/max) = 4.363 | 4.363 | 4.363 Mbytes
   Step          Temp          E_pair         E_mol          TotEng         Press          Volume    
         0   332.28        -6121.5966      0             -5949.8373     -7316.8705      93501.061    
     10000   320.42969     -5942.918       0             -5777.2843      441.07325      92785.311    
Loop time of 98.092 on 1 procs for 10000 steps with 4000 atoms

Performance: 8.808 ns/day, 2.725 hours/ns, 101.945 timesteps/s, 407.781 katom-step/s
99.4% CPU use with 1 MPI tasks x 1 OpenMP threads

MPI task timing breakdown:
Section |  min time  |  avg time  |  max time  |%varavg| %total
---------------------------------------------------------------
Pair    | 96.493     | 96.493     | 96.493     |   0.0 | 98.37
Neigh   | 0.096853   | 0.096853   | 0.096853   |   0.0 |  0.10
Comm    | 0.26947    | 0.26947    | 0.26947    |   0.0 |  0.27
Output  | 9.5098e-05 | 9.5098e-05 | 9.5098e-05 |   0.0 |  0.00
Modify  | 1.1063     | 1.1063     | 1.1063     |   0.0 |  1.13
Other   |            | 0.1265     |            |       |  0.13

Nlocal:           4000 ave        4000 max        4000 min
Histogram: 1 0 0 0 0 0 0 0 0 0
Nghost:           7447 ave        7447 max        7447 min
Histogram: 1 0 0 0 0 0 0 0 0 0
Neighs:         296993 ave      296993 max      296993 min
Histogram: 1 0 0 0 0 0 0 0 0 0

Total # of neighbors = 296993
Ave neighs/atom = 74.24825
Neighbor list builds = 12
Dangerous builds = 0

#----------------------------- Run simulation ---------------------------------#
dump             d1 all custom 10000 md/data/mg_hcp/dump_0.36.gz id type x y z # snapshots
run              90000
Per MPI rank memory allocation (min/avg/max) = 4.751 | 4.751 | 4.751 Mbytes
   Step          Temp          E_pair         E_mol          TotEng         Press          Volume    
     10000   320.42969     -5942.918       0             -5777.2843      441.07325      92785.311    
    100000   331.84774     -5942.711       0             -5771.1751     -211.90913      92961.571    
Loop time of 862.16 on 1 procs for 90000 steps with 4000 atoms

Performance: 9.019 ns/day, 2.661 hours/ns, 104.389 timesteps/s, 417.556 katom-step/s
99.4% CPU use with 1 MPI tasks x 1 OpenMP threads

MPI task timing breakdown:
Section |  min time  |  avg time  |  max time  |%varavg| %total
---------------------------------------------------------------
Pair    | 848.25     | 848.25     | 848.25     |   0.0 | 98.39
Neigh   | 0.33431    | 0.33431    | 0.33431    |   0.0 |  0.04
Comm    | 2.3978     | 2.3978     | 2.3978     |   0.0 |  0.28
Output  | 0.085265   | 0.085265   | 0.085265   |   0.0 |  0.01
Modify  | 9.9346     | 9.9346     | 9.9346     |   0.0 |  1.15
Other   |            | 1.157      |            |       |  0.13

Nlocal:           4000 ave        4000 max        4000 min
Histogram: 1 0 0 0 0 0 0 0 0 0
Nghost:           7436 ave        7436 max        7436 min
Histogram: 1 0 0 0 0 0 0 0 0 0
Neighs:         297241 ave      297241 max      297241 min
Histogram: 1 0 0 0 0 0 0 0 0 0

Total # of neighbors = 297241
Ave neighs/atom = 74.31025
Neighbor list builds = 42
Dangerous builds = 0
undump           d1
min_modify       line forcezero
minimize         0 0 100000 100000                                                                               # minimize energy
Per MPI rank memory allocation (min/avg/max) = 5.876 | 5.876 | 5.876 Mbytes
   Step          Temp          E_pair         E_mol          TotEng         Press          Volume    
    100000   331.84774     -5942.711       0             -5771.1751     -211.90913      92961.571    
    100098   331.84774     -6124.3578      0             -5952.822      -5154.0281      92961.571    
Loop time of 1.73949 on 1 procs for 98 steps with 4000 atoms

99.5% CPU use with 1 MPI tasks x 1 OpenMP threads

Minimization stats:
  Stopping criterion = linesearch alpha is zero
  Energy initial, next-to-last, final = 
     -5942.71099653471  -6124.35783200444  -6124.35783200444
  Force two-norm initial, final = 35.622789 2.1575894e-05
  Force max component initial, final = 1.345843 7.9425298e-07
  Final line search alpha, max atom move = 6.139999e-06 4.8767125e-12
  Iterations, force evaluations = 98 199

MPI task timing breakdown:
Section |  min time  |  avg time  |  max time  |%varavg| %total
---------------------------------------------------------------
Pair    | 1.7234     | 1.7234     | 1.7234     |   0.0 | 99.07
Neigh   | 0          | 0          | 0          |   0.0 |  0.00
Comm    | 0.0054649  | 0.0054649  | 0.0054649  |   0.0 |  0.31
Output  | 0          | 0          | 0          |   0.0 |  0.00
Modify  | 0          | 0          | 0          |   0.0 |  0.00
Other   |            | 0.01064    |            |       |  0.61

Nlocal:           4000 ave        4000 max        4000 min
Histogram: 1 0 0 0 0 0 0 0 0 0
Nghost:           7457 ave        7457 max        7457 min
Histogram: 1 0 0 0 0 0 0 0 0 0
Neighs:         296858 ave      296858 max      296858 min
Histogram: 1 0 0 0 0 0 0 0 0 0

Total # of neighbors = 296858
Ave neighs/atom = 74.2145
Neighbor list builds = 0
Dangerous builds = 0
write_dump       all custom md/data/mg_hcp/dump_0.36_relaxed.gz id type x y z
#------------------------------------------------------------------------------#
Total wall time: 0:16:02
