LAMMPS (29 Aug 2024)
OMP_NUM_THREADS environment is not set. Defaulting to 1 thread. (src/comm.cpp:98)
  using 1 OpenMP thread(s) per MPI task
Lattice spacing in x,y,z = 3.2094 5.5588439 5.2409283
Created orthogonal box = (0 0 0) to (32.094 55.588439 52.409283)
  1 by 1 by 1 MPI processor grid
Created 4000 atoms
  using lattice units in orthogonal box = (0 0 0) to (32.094 55.588439 52.409283)
  create_atoms CPU = 0.001 seconds
Neighbor list info ...
  update: every = 1 steps, delay = 0 steps, check = yes
  max neighbors/atom: 2000, page size: 100000
  master list distance cutoff = 9.5
  ghost atom cutoff = 9.5
  binsize = 4.75, bins = 7 12 12
  1 neighbor lists, perpetual/occasional/extra = 1 0 0
  (1) pair eam/fs, perpetual
      attributes: half, newton on
      pair build: half/bin/atomonly/newton
      stencil: half/bin/3d
      bin: standard
Setting up Verlet run ...
  Unit style    : metal
  Current step  : 0
  Time step     : 0.001
Per MPI rank memory allocation (min/avg/max) = 4.363 | 4.363 | 4.363 Mbytes
   Step          Temp          E_pair         E_mol          TotEng         Press          Volume    
         0   1107.6        -6121.5966      0             -5549.0656     -2738.6196      93501.061    
     10000   1083.5347     -5346.6587      0             -4786.5674      299.60856      99362.821    
Loop time of 100.178 on 1 procs for 10000 steps with 4000 atoms

Performance: 8.625 ns/day, 2.783 hours/ns, 99.822 timesteps/s, 399.288 katom-step/s
99.6% CPU use with 1 MPI tasks x 1 OpenMP threads

MPI task timing breakdown:
Section |  min time  |  avg time  |  max time  |%varavg| %total
---------------------------------------------------------------
Pair    | 96.548     | 96.548     | 96.548     |   0.0 | 96.38
Neigh   | 2.0897     | 2.0897     | 2.0897     |   0.0 |  2.09
Comm    | 0.29138    | 0.29138    | 0.29138    |   0.0 |  0.29
Output  | 8.551e-05  | 8.551e-05  | 8.551e-05  |   0.0 |  0.00
Modify  | 1.1162     | 1.1162     | 1.1162     |   0.0 |  1.11
Other   |            | 0.1328     |            |       |  0.13

Nlocal:           4000 ave        4000 max        4000 min
Histogram: 1 0 0 0 0 0 0 0 0 0
Nghost:           7318 ave        7318 max        7318 min
Histogram: 1 0 0 0 0 0 0 0 0 0
Neighs:         287240 ave      287240 max      287240 min
Histogram: 1 0 0 0 0 0 0 0 0 0

Total # of neighbors = 287240
Ave neighs/atom = 71.81
Neighbor list builds = 256
Dangerous builds = 0
Setting up Verlet run ...
  Unit style    : metal
  Current step  : 10000
  Time step     : 0.001
Per MPI rank memory allocation (min/avg/max) = 4.748 | 4.748 | 4.748 Mbytes
   Step          Temp          E_pair         E_mol          TotEng         Press          Volume    
     10000   1083.5347     -5346.6587      0             -4786.5674      299.60856      99362.821    
    100000   1112.6366     -4923.284       0             -4348.1496     -615.07127      107633.51    
Loop time of 879.554 on 1 procs for 90000 steps with 4000 atoms

Performance: 8.841 ns/day, 2.715 hours/ns, 102.325 timesteps/s, 409.299 katom-step/s
99.6% CPU use with 1 MPI tasks x 1 OpenMP threads

MPI task timing breakdown:
Section |  min time  |  avg time  |  max time  |%varavg| %total
---------------------------------------------------------------
Pair    | 847.72     | 847.72     | 847.72     |   0.0 | 96.38
Neigh   | 17.951     | 17.951     | 17.951     |   0.0 |  2.04
Comm    | 2.577      | 2.577      | 2.577      |   0.0 |  0.29
Output  | 0.09025    | 0.09025    | 0.09025    |   0.0 |  0.01
Modify  | 10.037     | 10.037     | 10.037     |   0.0 |  1.14
Other   |            | 1.18       |            |       |  0.13

Nlocal:           4000 ave        4000 max        4000 min
Histogram: 1 0 0 0 0 0 0 0 0 0
Nghost:           7187 ave        7187 max        7187 min
Histogram: 1 0 0 0 0 0 0 0 0 0
Neighs:         267027 ave      267027 max      267027 min
Histogram: 1 0 0 0 0 0 0 0 0 0

Total # of neighbors = 267027
Ave neighs/atom = 66.75675
Neighbor list builds = 2352
Dangerous builds = 0
Setting up cg style minimization ...
  Unit style    : metal
  Current step  : 100000
Per MPI rank memory allocation (min/avg/max) = 5.875 | 5.875 | 5.875 Mbytes
   Step          Temp          E_pair         E_mol          TotEng         Press          Volume    
    100000   1112.6366     -4923.284       0             -4348.1496     -615.07127      107633.51    
    102806   1112.6366     -5696.5868      0             -5121.4523     -13444.685      107633.51    
Loop time of 47.1015 on 1 procs for 2806 steps with 4000 atoms

99.7% CPU use with 1 MPI tasks x 1 OpenMP threads

Minimization stats:
  Stopping criterion = linesearch alpha is zero
  Energy initial, next-to-last, final = 
     -4923.28400656159  -5696.58675161277  -5696.58675161277
  Force two-norm initial, final = 54.359526 3.1964649e-05
  Force max component initial, final = 1.9881917 8.9937251e-06
  Final line search alpha, max atom move = 1.7478506e-06 1.5719688e-11
  Iterations, force evaluations = 2806 4722

MPI task timing breakdown:
Section |  min time  |  avg time  |  max time  |%varavg| %total
---------------------------------------------------------------
Pair    | 46.187     | 46.187     | 46.187     |   0.0 | 98.06
Neigh   | 0.5053     | 0.5053     | 0.5053     |   0.0 |  1.07
Comm    | 0.13221    | 0.13221    | 0.13221    |   0.0 |  0.28
Output  | 0          | 0          | 0          |   0.0 |  0.00
Modify  | 0          | 0          | 0          |   0.0 |  0.00
Other   |            | 0.2774     |            |       |  0.59

Nlocal:           4000 ave        4000 max        4000 min
Histogram: 1 0 0 0 0 0 0 0 0 0
Nghost:           7252 ave        7252 max        7252 min
Histogram: 1 0 0 0 0 0 0 0 0 0
Neighs:         272466 ave      272466 max      272466 min
Histogram: 1 0 0 0 0 0 0 0 0 0

Total # of neighbors = 272466
Ave neighs/atom = 68.1165
Neighbor list builds = 69
Dangerous builds = 0
Total wall time: 0:17:06
