LAMMPS (29 Aug 2024)
OMP_NUM_THREADS environment is not set. Defaulting to 1 thread. (src/comm.cpp:98)
  using 1 OpenMP thread(s) per MPI task
Lattice spacing in x,y,z = 3.2094 5.5588439 5.2409283
Created orthogonal box = (0 0 0) to (32.094 55.588439 52.409283)
  1 by 1 by 1 MPI processor grid
Created 4000 atoms
  using lattice units in orthogonal box = (0 0 0) to (32.094 55.588439 52.409283)
  create_atoms CPU = 0.001 seconds
Neighbor list info ...
  update: every = 1 steps, delay = 0 steps, check = yes
  max neighbors/atom: 2000, page size: 100000
  master list distance cutoff = 9.5
  ghost atom cutoff = 9.5
  binsize = 4.75, bins = 7 12 12
  1 neighbor lists, perpetual/occasional/extra = 1 0 0
  (1) pair eam/fs, perpetual
      attributes: half, newton on
      pair build: half/bin/atomonly/newton
      stencil: half/bin/3d
      bin: standard
Setting up Verlet run ...
  Unit style    : metal
  Current step  : 0
  Time step     : 0.001
Per MPI rank memory allocation (min/avg/max) = 4.363 | 4.363 | 4.363 Mbytes
   Step          Temp          E_pair         E_mol          TotEng         Press          Volume    
         0   996.84        -6121.5966      0             -5606.3187     -3392.6555      93501.061    
     10000   984.22699     -5484.9053      0             -4976.1472     -674.21528      97724.4      
Loop time of 100.815 on 1 procs for 10000 steps with 4000 atoms

Performance: 8.570 ns/day, 2.800 hours/ns, 99.192 timesteps/s, 396.767 katom-step/s
99.6% CPU use with 1 MPI tasks x 1 OpenMP threads

MPI task timing breakdown:
Section |  min time  |  avg time  |  max time  |%varavg| %total
---------------------------------------------------------------
Pair    | 97.332     | 97.332     | 97.332     |   0.0 | 96.55
Neigh   | 1.9622     | 1.9622     | 1.9622     |   0.0 |  1.95
Comm    | 0.29197    | 0.29197    | 0.29197    |   0.0 |  0.29
Output  | 8.501e-05  | 8.501e-05  | 8.501e-05  |   0.0 |  0.00
Modify  | 1.1014     | 1.1014     | 1.1014     |   0.0 |  1.09
Other   |            | 0.1266     |            |       |  0.13

Nlocal:           4000 ave        4000 max        4000 min
Histogram: 1 0 0 0 0 0 0 0 0 0
Nghost:           7357 ave        7357 max        7357 min
Histogram: 1 0 0 0 0 0 0 0 0 0
Neighs:         289379 ave      289379 max      289379 min
Histogram: 1 0 0 0 0 0 0 0 0 0

Total # of neighbors = 289379
Ave neighs/atom = 72.34475
Neighbor list builds = 241
Dangerous builds = 0
Setting up Verlet run ...
  Unit style    : metal
  Current step  : 10000
  Time step     : 0.001
Per MPI rank memory allocation (min/avg/max) = 4.751 | 4.751 | 4.751 Mbytes
   Step          Temp          E_pair         E_mol          TotEng         Press          Volume    
     10000   984.22699     -5484.9053      0             -4976.1472     -674.21528      97724.4      
    100000   995.6515      -5459.9744      0             -4945.3109     -297.04684      97980.116    
Loop time of 906.204 on 1 procs for 90000 steps with 4000 atoms

Performance: 8.581 ns/day, 2.797 hours/ns, 99.315 timesteps/s, 397.261 katom-step/s
99.6% CPU use with 1 MPI tasks x 1 OpenMP threads

MPI task timing breakdown:
Section |  min time  |  avg time  |  max time  |%varavg| %total
---------------------------------------------------------------
Pair    | 874.57     | 874.57     | 874.57     |   0.0 | 96.51
Neigh   | 17.78      | 17.78      | 17.78      |   0.0 |  1.96
Comm    | 2.6129     | 2.6129     | 2.6129     |   0.0 |  0.29
Output  | 0.08478    | 0.08478    | 0.08478    |   0.0 |  0.01
Modify  | 9.9958     | 9.9958     | 9.9958     |   0.0 |  1.10
Other   |            | 1.16       |            |       |  0.13

Nlocal:           4000 ave        4000 max        4000 min
Histogram: 1 0 0 0 0 0 0 0 0 0
Nghost:           7366 ave        7366 max        7366 min
Histogram: 1 0 0 0 0 0 0 0 0 0
Neighs:         289201 ave      289201 max      289201 min
Histogram: 1 0 0 0 0 0 0 0 0 0

Total # of neighbors = 289201
Ave neighs/atom = 72.30025
Neighbor list builds = 2177
Dangerous builds = 0
Setting up cg style minimization ...
  Unit style    : metal
  Current step  : 100000
Per MPI rank memory allocation (min/avg/max) = 5.876 | 5.876 | 5.876 Mbytes
   Step          Temp          E_pair         E_mol          TotEng         Press          Volume    
    100000   995.6515      -5459.9744      0             -4945.3109     -297.04684      97980.116    
    100114   995.6515      -6070.0634      0             -5555.3999     -22060.701      97980.116    
Loop time of 1.79094 on 1 procs for 114 steps with 4000 atoms

99.7% CPU use with 1 MPI tasks x 1 OpenMP threads

Minimization stats:
  Stopping criterion = linesearch alpha is zero
  Energy initial, next-to-last, final = 
     -5459.97438860439   -6070.0633856192   -6070.0633856192
  Force two-norm initial, final = 56.285756 1.3283008e-05
  Force max component initial, final = 2.4046319 5.2393519e-07
  Final line search alpha, max atom move = 0.0021592146 1.1312885e-09
  Iterations, force evaluations = 114 195

MPI task timing breakdown:
Section |  min time  |  avg time  |  max time  |%varavg| %total
---------------------------------------------------------------
Pair    | 1.7665     | 1.7665     | 1.7665     |   0.0 | 98.64
Neigh   | 0.0079476  | 0.0079476  | 0.0079476  |   0.0 |  0.44
Comm    | 0.0053105  | 0.0053105  | 0.0053105  |   0.0 |  0.30
Output  | 0          | 0          | 0          |   0.0 |  0.00
Modify  | 0          | 0          | 0          |   0.0 |  0.00
Other   |            | 0.01115    |            |       |  0.62

Nlocal:           4000 ave        4000 max        4000 min
Histogram: 1 0 0 0 0 0 0 0 0 0
Nghost:           7292 ave        7292 max        7292 min
Histogram: 1 0 0 0 0 0 0 0 0 0
Neighs:         287260 ave      287260 max      287260 min
Histogram: 1 0 0 0 0 0 0 0 0 0

Total # of neighbors = 287260
Ave neighs/atom = 71.815
Neighbor list builds = 1
Dangerous builds = 0
Total wall time: 0:16:48
