LAMMPS (29 Aug 2024)
OMP_NUM_THREADS environment is not set. Defaulting to 1 thread. (src/comm.cpp:98)
  using 1 OpenMP thread(s) per MPI task
Lattice spacing in x,y,z = 3.2094 5.5588439 5.2409283
Created orthogonal box = (0 0 0) to (32.094 55.588439 52.409283)
  1 by 1 by 1 MPI processor grid
Created 4000 atoms
  using lattice units in orthogonal box = (0 0 0) to (32.094 55.588439 52.409283)
  create_atoms CPU = 0.000 seconds
Neighbor list info ...
  update: every = 1 steps, delay = 0 steps, check = yes
  max neighbors/atom: 2000, page size: 100000
  master list distance cutoff = 9.5
  ghost atom cutoff = 9.5
  binsize = 4.75, bins = 7 12 12
  1 neighbor lists, perpetual/occasional/extra = 1 0 0
  (1) pair eam/fs, perpetual
      attributes: half, newton on
      pair build: half/bin/atomonly/newton
      stencil: half/bin/3d
      bin: standard
Setting up Verlet run ...
  Unit style    : metal
  Current step  : 0
  Time step     : 0.001
Per MPI rank memory allocation (min/avg/max) = 4.363 | 4.363 | 4.363 Mbytes
   Step          Temp          E_pair         E_mol          TotEng         Press          Volume    
         0   443.04        -6121.5966      0             -5892.5842     -6662.8347      93501.061    
     10000   439.16695     -5882.131       0             -5655.1207     -22.059485      93538.806    
Loop time of 92.0761 on 1 procs for 10000 steps with 4000 atoms

Performance: 9.384 ns/day, 2.558 hours/ns, 108.606 timesteps/s, 434.423 katom-step/s
99.6% CPU use with 1 MPI tasks x 1 OpenMP threads

MPI task timing breakdown:
Section |  min time  |  avg time  |  max time  |%varavg| %total
---------------------------------------------------------------
Pair    | 90.606     | 90.606     | 90.606     |   0.0 | 98.40
Neigh   | 0          | 0          | 0          |   0.0 |  0.00
Comm    | 0.25821    | 0.25821    | 0.25821    |   0.0 |  0.28
Output  | 8.3317e-05 | 8.3317e-05 | 8.3317e-05 |   0.0 |  0.00
Modify  | 1.0914     | 1.0914     | 1.0914     |   0.0 |  1.19
Other   |            | 0.12       |            |       |  0.13

Nlocal:           4000 ave        4000 max        4000 min
Histogram: 1 0 0 0 0 0 0 0 0 0
Nghost:           7299 ave        7299 max        7299 min
Histogram: 1 0 0 0 0 0 0 0 0 0
Neighs:         292000 ave      292000 max      292000 min
Histogram: 1 0 0 0 0 0 0 0 0 0

Total # of neighbors = 292000
Ave neighs/atom = 73
Neighbor list builds = 0
Dangerous builds = 0
Setting up Verlet run ...
  Unit style    : metal
  Current step  : 10000
  Time step     : 0.001
Per MPI rank memory allocation (min/avg/max) = 4.747 | 4.747 | 4.747 Mbytes
   Step          Temp          E_pair         E_mol          TotEng         Press          Volume    
     10000   439.16695     -5882.131       0             -5655.1207     -22.059485      93538.806    
    100000   436.74927     -5871.3074      0             -5645.5467     -44.122419      93621.084    
Loop time of 888.684 on 1 procs for 90000 steps with 4000 atoms

Performance: 8.750 ns/day, 2.743 hours/ns, 101.273 timesteps/s, 405.094 katom-step/s
99.6% CPU use with 1 MPI tasks x 1 OpenMP threads

MPI task timing breakdown:
Section |  min time  |  avg time  |  max time  |%varavg| %total
---------------------------------------------------------------
Pair    | 866        | 866        | 866        |   0.0 | 97.45
Neigh   | 9.0634     | 9.0634     | 9.0634     |   0.0 |  1.02
Comm    | 2.5218     | 2.5218     | 2.5218     |   0.0 |  0.28
Output  | 0.084741   | 0.084741   | 0.084741   |   0.0 |  0.01
Modify  | 9.8824     | 9.8824     | 9.8824     |   0.0 |  1.11
Other   |            | 1.136      |            |       |  0.13

Nlocal:           4000 ave        4000 max        4000 min
Histogram: 1 0 0 0 0 0 0 0 0 0
Nghost:           7427 ave        7427 max        7427 min
Histogram: 1 0 0 0 0 0 0 0 0 0
Neighs:         295120 ave      295120 max      295120 min
Histogram: 1 0 0 0 0 0 0 0 0 0

Total # of neighbors = 295120
Ave neighs/atom = 73.78
Neighbor list builds = 1125
Dangerous builds = 0
Setting up cg style minimization ...
  Unit style    : metal
  Current step  : 100000
Per MPI rank memory allocation (min/avg/max) = 5.876 | 5.876 | 5.876 Mbytes
   Step          Temp          E_pair         E_mol          TotEng         Press          Volume    
    100000   436.74927     -5871.3074      0             -5645.5467     -44.122419      93621.084    
    100095   436.74927     -6120.8834      0             -5895.1228     -7185.1792      93621.084    
Loop time of 1.6737 on 1 procs for 95 steps with 4000 atoms

99.7% CPU use with 1 MPI tasks x 1 OpenMP threads

Minimization stats:
  Stopping criterion = linesearch alpha is zero
  Energy initial, next-to-last, final = 
     -5871.30737173498  -6120.88343058544  -6120.88343058544
  Force two-norm initial, final = 41.250776 2.5247108e-05
  Force max component initial, final = 1.4688946 8.9770532e-07
  Final line search alpha, max atom move = 1.9972118e-05 1.7929076e-11
  Iterations, force evaluations = 95 190

MPI task timing breakdown:
Section |  min time  |  avg time  |  max time  |%varavg| %total
---------------------------------------------------------------
Pair    | 1.659      | 1.659      | 1.659      |   0.0 | 99.12
Neigh   | 0          | 0          | 0          |   0.0 |  0.00
Comm    | 0.0050109  | 0.0050109  | 0.0050109  |   0.0 |  0.30
Output  | 0          | 0          | 0          |   0.0 |  0.00
Modify  | 0          | 0          | 0          |   0.0 |  0.00
Other   |            | 0.009694   |            |       |  0.58

Nlocal:           4000 ave        4000 max        4000 min
Histogram: 1 0 0 0 0 0 0 0 0 0
Nghost:           7422 ave        7422 max        7422 min
Histogram: 1 0 0 0 0 0 0 0 0 0
Neighs:         295445 ave      295445 max      295445 min
Histogram: 1 0 0 0 0 0 0 0 0 0

Total # of neighbors = 295445
Ave neighs/atom = 73.86125
Neighbor list builds = 0
Dangerous builds = 0
Total wall time: 0:16:22
