LAMMPS (29 Aug 2024)
OMP_NUM_THREADS environment is not set. Defaulting to 1 thread. (src/comm.cpp:98)
  using 1 OpenMP thread(s) per MPI task

#---------------------------- Atomic setup ------------------------------------#
units            metal
timestep         0.001
boundary         p p p
lattice          hcp 3.2094
Lattice spacing in x,y,z = 3.2094 5.5588439 5.2409283
region           sim_box block 0 10 0 10 0 10
create_box       1 sim_box
Created orthogonal box = (0 0 0) to (32.094 55.588439 52.409283)
  1 by 1 by 1 MPI processor grid
create_atoms     1 box
Created 4000 atoms
  using lattice units in orthogonal box = (0 0 0) to (32.094 55.588439 52.409283)
  create_atoms CPU = 0.000 seconds

pair_style       eam/fs                                             # interatomic potential (Lennard-Jones, EAM, etc.)
pair_coeff       * * ${potentials_dir}/mg_eam.fs Mg # interatomic potential parameters (ex. eam.alloy Cu_u3.eam)
pair_coeff       * * md/potentials/mg_eam.fs Mg 
pair_modify      tail yes
neigh_modify     delay 0                                                       # neighbor list update frequency (0 = every timestep)
mass             1 24.305                                                 # atomic mass
variable         rnd equal round(random(0,999999,42))

#----------------------------- Equilibriation ---------------------------------#
velocity         all create 553.8 ${rnd} dist gaussian              # initial velocities
velocity         all create 553.8 420940 dist gaussian              
fix              f2 all nph iso 0 0 1.0        # barostat
variable         rnd equal round(random(0,999999,0))
fix              f3 all temp/csvr 553.8 553.8 0.1 ${rnd} # thermostat
fix              f3 all temp/csvr 553.8 553.8 0.1 53464 
run              10000                                           # equilibriation run
Neighbor list info ...
  update: every = 1 steps, delay = 0 steps, check = yes
  max neighbors/atom: 2000, page size: 100000
  master list distance cutoff = 9.5
  ghost atom cutoff = 9.5
  binsize = 4.75, bins = 7 12 12
  1 neighbor lists, perpetual/occasional/extra = 1 0 0
  (1) pair eam/fs, perpetual
      attributes: half, newton on
      pair build: half/bin/atomonly/newton
      stencil: half/bin/3d
      bin: standard
Per MPI rank memory allocation (min/avg/max) = 4.363 | 4.363 | 4.363 Mbytes
   Step          Temp          E_pair         E_mol          TotEng         Press          Volume    
         0   553.8         -6121.5966      0             -5835.3311     -6008.7989      93501.061    
     10000   539.60627     -5807.8891      0             -5528.9605      266.47771      94100.777    
Loop time of 100.838 on 1 procs for 10000 steps with 4000 atoms

Performance: 8.568 ns/day, 2.801 hours/ns, 99.169 timesteps/s, 396.675 katom-step/s
99.6% CPU use with 1 MPI tasks x 1 OpenMP threads

MPI task timing breakdown:
Section |  min time  |  avg time  |  max time  |%varavg| %total
---------------------------------------------------------------
Pair    | 98.016     | 98.016     | 98.016     |   0.0 | 97.20
Neigh   | 1.2963     | 1.2963     | 1.2963     |   0.0 |  1.29
Comm    | 0.28509    | 0.28509    | 0.28509    |   0.0 |  0.28
Output  | 8.7334e-05 | 8.7334e-05 | 8.7334e-05 |   0.0 |  0.00
Modify  | 1.1128     | 1.1128     | 1.1128     |   0.0 |  1.10
Other   |            | 0.1278     |            |       |  0.13

Nlocal:           4000 ave        4000 max        4000 min
Histogram: 1 0 0 0 0 0 0 0 0 0
Nghost:           7427 ave        7427 max        7427 min
Histogram: 1 0 0 0 0 0 0 0 0 0
Neighs:         294722 ave      294722 max      294722 min
Histogram: 1 0 0 0 0 0 0 0 0 0

Total # of neighbors = 294722
Ave neighs/atom = 73.6805
Neighbor list builds = 161
Dangerous builds = 0

#----------------------------- Run simulation ---------------------------------#
dump             d1 all custom 10000 md/data/mg_hcp/dump_0.6.gz id type x y z # snapshots
run              90000
Per MPI rank memory allocation (min/avg/max) = 4.751 | 4.751 | 4.751 Mbytes
   Step          Temp          E_pair         E_mol          TotEng         Press          Volume    
     10000   539.60627     -5807.8891      0             -5528.9605      266.47771      94100.777    
    100000   548.70139     -5802.9063      0             -5519.2764     -58.000789      94227.597    
Loop time of 913.596 on 1 procs for 90000 steps with 4000 atoms

Performance: 8.511 ns/day, 2.820 hours/ns, 98.512 timesteps/s, 394.047 katom-step/s
99.6% CPU use with 1 MPI tasks x 1 OpenMP threads

MPI task timing breakdown:
Section |  min time  |  avg time  |  max time  |%varavg| %total
---------------------------------------------------------------
Pair    | 887.98     | 887.98     | 887.98     |   0.0 | 97.20
Neigh   | 11.763     | 11.763     | 11.763     |   0.0 |  1.29
Comm    | 2.5625     | 2.5625     | 2.5625     |   0.0 |  0.28
Output  | 0.084628   | 0.084628   | 0.084628   |   0.0 |  0.01
Modify  | 10.088     | 10.088     | 10.088     |   0.0 |  1.10
Other   |            | 1.115      |            |       |  0.12

Nlocal:           4000 ave        4000 max        4000 min
Histogram: 1 0 0 0 0 0 0 0 0 0
Nghost:           7379 ave        7379 max        7379 min
Histogram: 1 0 0 0 0 0 0 0 0 0
Neighs:         294381 ave      294381 max      294381 min
Histogram: 1 0 0 0 0 0 0 0 0 0

Total # of neighbors = 294381
Ave neighs/atom = 73.59525
Neighbor list builds = 1454
Dangerous builds = 0
undump           d1
min_modify       line forcezero
minimize         0 0 100000 100000                                                                               # minimize energy
Per MPI rank memory allocation (min/avg/max) = 5.876 | 5.876 | 5.876 Mbytes
   Step          Temp          E_pair         E_mol          TotEng         Press          Volume    
    100000   548.70139     -5802.9063      0             -5519.2764     -58.000789      94227.597    
    100098   548.70139     -6116.7255      0             -5833.0955     -8995.4608      94227.597    
Loop time of 1.73737 on 1 procs for 98 steps with 4000 atoms

99.7% CPU use with 1 MPI tasks x 1 OpenMP threads

Minimization stats:
  Stopping criterion = linesearch alpha is zero
  Energy initial, next-to-last, final = 
     -5802.90631009316   -6116.7254864349   -6116.7254864349
  Force two-norm initial, final = 45.181582 1.5487156e-05
  Force max component initial, final = 1.9772676 5.6898549e-07
  Final line search alpha, max atom move = 2.160498e-07 1.229292e-13
  Iterations, force evaluations = 98 193

MPI task timing breakdown:
Section |  min time  |  avg time  |  max time  |%varavg| %total
---------------------------------------------------------------
Pair    | 1.7221     | 1.7221     | 1.7221     |   0.0 | 99.12
Neigh   | 0          | 0          | 0          |   0.0 |  0.00
Comm    | 0.0050562  | 0.0050562  | 0.0050562  |   0.0 |  0.29
Output  | 0          | 0          | 0          |   0.0 |  0.00
Modify  | 0          | 0          | 0          |   0.0 |  0.00
Other   |            | 0.01024    |            |       |  0.59

Nlocal:           4000 ave        4000 max        4000 min
Histogram: 1 0 0 0 0 0 0 0 0 0
Nghost:           7384 ave        7384 max        7384 min
Histogram: 1 0 0 0 0 0 0 0 0 0
Neighs:         294347 ave      294347 max      294347 min
Histogram: 1 0 0 0 0 0 0 0 0 0

Total # of neighbors = 294347
Ave neighs/atom = 73.58675
Neighbor list builds = 0
Dangerous builds = 0
write_dump       all custom md/data/mg_hcp/dump_0.6_relaxed.gz id type x y z
#------------------------------------------------------------------------------#
Total wall time: 0:16:56
