LAMMPS (29 Aug 2024)
OMP_NUM_THREADS environment is not set. Defaulting to 1 thread. (src/comm.cpp:98)
  using 1 OpenMP thread(s) per MPI task
Lattice spacing in x,y,z = 3.2094 5.5588439 5.2409283
Created orthogonal box = (0 0 0) to (32.094 55.588439 52.409283)
  1 by 1 by 1 MPI processor grid
Created 4000 atoms
  using lattice units in orthogonal box = (0 0 0) to (32.094 55.588439 52.409283)
  create_atoms CPU = 0.001 seconds
Neighbor list info ...
  update: every = 1 steps, delay = 0 steps, check = yes
  max neighbors/atom: 2000, page size: 100000
  master list distance cutoff = 9.5
  ghost atom cutoff = 9.5
  binsize = 4.75, bins = 7 12 12
  1 neighbor lists, perpetual/occasional/extra = 1 0 0
  (1) pair eam/fs, perpetual
      attributes: half, newton on
      pair build: half/bin/atomonly/newton
      stencil: half/bin/3d
      bin: standard
Setting up Verlet run ...
  Unit style    : metal
  Current step  : 0
  Time step     : 0.001
Per MPI rank memory allocation (min/avg/max) = 4.363 | 4.363 | 4.363 Mbytes
   Step          Temp          E_pair         E_mol          TotEng         Press          Volume    
         0   923           -6121.5966      0             -5644.4874     -3828.6794      93501.061    
     10000   916.4642      -5551.2223      0             -5077.4916      560.85167      96718.817    
Loop time of 100.604 on 1 procs for 10000 steps with 4000 atoms

Performance: 8.588 ns/day, 2.795 hours/ns, 99.400 timesteps/s, 397.600 katom-step/s
99.5% CPU use with 1 MPI tasks x 1 OpenMP threads

MPI task timing breakdown:
Section |  min time  |  avg time  |  max time  |%varavg| %total
---------------------------------------------------------------
Pair    | 97.2       | 97.2       | 97.2       |   0.0 | 96.62
Neigh   | 1.8607     | 1.8607     | 1.8607     |   0.0 |  1.85
Comm    | 0.29015    | 0.29015    | 0.29015    |   0.0 |  0.29
Output  | 8.7985e-05 | 8.7985e-05 | 8.7985e-05 |   0.0 |  0.00
Modify  | 1.1216     | 1.1216     | 1.1216     |   0.0 |  1.11
Other   |            | 0.1307     |            |       |  0.13

Nlocal:           4000 ave        4000 max        4000 min
Histogram: 1 0 0 0 0 0 0 0 0 0
Nghost:           7364 ave        7364 max        7364 min
Histogram: 1 0 0 0 0 0 0 0 0 0
Neighs:         290988 ave      290988 max      290988 min
Histogram: 1 0 0 0 0 0 0 0 0 0

Total # of neighbors = 290988
Ave neighs/atom = 72.747
Neighbor list builds = 229
Dangerous builds = 0
Setting up Verlet run ...
  Unit style    : metal
  Current step  : 10000
  Time step     : 0.001
Per MPI rank memory allocation (min/avg/max) = 4.748 | 4.748 | 4.748 Mbytes
   Step          Temp          E_pair         E_mol          TotEng         Press          Volume    
     10000   916.4642      -5551.2223      0             -5077.4916      560.85167      96718.817    
    100000   939.56814     -5541.882       0             -5056.2086     -295.72368      97102.6      
Loop time of 909.732 on 1 procs for 90000 steps with 4000 atoms

Performance: 8.548 ns/day, 2.808 hours/ns, 98.930 timesteps/s, 395.721 katom-step/s
99.6% CPU use with 1 MPI tasks x 1 OpenMP threads

MPI task timing breakdown:
Section |  min time  |  avg time  |  max time  |%varavg| %total
---------------------------------------------------------------
Pair    | 878.66     | 878.66     | 878.66     |   0.0 | 96.58
Neigh   | 16.996     | 16.996     | 16.996     |   0.0 |  1.87
Comm    | 2.6292     | 2.6292     | 2.6292     |   0.0 |  0.29
Output  | 0.084173   | 0.084173   | 0.084173   |   0.0 |  0.01
Modify  | 10.219     | 10.219     | 10.219     |   0.0 |  1.12
Other   |            | 1.141      |            |       |  0.13

Nlocal:           4000 ave        4000 max        4000 min
Histogram: 1 0 0 0 0 0 0 0 0 0
Nghost:           7320 ave        7320 max        7320 min
Histogram: 1 0 0 0 0 0 0 0 0 0
Neighs:         290321 ave      290321 max      290321 min
Histogram: 1 0 0 0 0 0 0 0 0 0

Total # of neighbors = 290321
Ave neighs/atom = 72.58025
Neighbor list builds = 2083
Dangerous builds = 0
Setting up cg style minimization ...
  Unit style    : metal
  Current step  : 100000
Per MPI rank memory allocation (min/avg/max) = 5.876 | 5.876 | 5.876 Mbytes
   Step          Temp          E_pair         E_mol          TotEng         Press          Volume    
    100000   939.56814     -5541.882       0             -5056.2086     -295.72368      97102.6      
    100095   939.56814     -6084.2284      0             -5598.555      -18707.248      97102.6      
Loop time of 1.59861 on 1 procs for 95 steps with 4000 atoms

99.6% CPU use with 1 MPI tasks x 1 OpenMP threads

Minimization stats:
  Stopping criterion = linesearch alpha is zero
  Energy initial, next-to-last, final = 
     -5541.88204227871  -6084.22837884958  -6084.22837884958
  Force two-norm initial, final = 54.862744 1.7623454e-05
  Force max component initial, final = 2.165942 6.7212081e-07
  Final line search alpha, max atom move = 6.9964373e-06 4.7024511e-12
  Iterations, force evaluations = 95 176

MPI task timing breakdown:
Section |  min time  |  avg time  |  max time  |%varavg| %total
---------------------------------------------------------------
Pair    | 1.5765     | 1.5765     | 1.5765     |   0.0 | 98.62
Neigh   | 0.0078788  | 0.0078788  | 0.0078788  |   0.0 |  0.49
Comm    | 0.0046924  | 0.0046924  | 0.0046924  |   0.0 |  0.29
Output  | 0          | 0          | 0          |   0.0 |  0.00
Modify  | 0          | 0          | 0          |   0.0 |  0.00
Other   |            | 0.009494   |            |       |  0.59

Nlocal:           4000 ave        4000 max        4000 min
Histogram: 1 0 0 0 0 0 0 0 0 0
Nghost:           7277 ave        7277 max        7277 min
Histogram: 1 0 0 0 0 0 0 0 0 0
Neighs:         290862 ave      290862 max      290862 min
Histogram: 1 0 0 0 0 0 0 0 0 0

Total # of neighbors = 290862
Ave neighs/atom = 72.7155
Neighbor list builds = 1
Dangerous builds = 0
Total wall time: 0:16:52
