LAMMPS (29 Aug 2024)
OMP_NUM_THREADS environment is not set. Defaulting to 1 thread. (src/comm.cpp:98)
  using 1 OpenMP thread(s) per MPI task
Lattice spacing in x,y,z = 3.2094 5.5588439 5.2409283
Created orthogonal box = (0 0 0) to (32.094 55.588439 52.409283)
  1 by 1 by 1 MPI processor grid
Created 4000 atoms
  using lattice units in orthogonal box = (0 0 0) to (32.094 55.588439 52.409283)
  create_atoms CPU = 0.001 seconds
Neighbor list info ...
  update: every = 1 steps, delay = 0 steps, check = yes
  max neighbors/atom: 2000, page size: 100000
  master list distance cutoff = 9.5
  ghost atom cutoff = 9.5
  binsize = 4.75, bins = 7 12 12
  1 neighbor lists, perpetual/occasional/extra = 1 0 0
  (1) pair eam/fs, perpetual
      attributes: half, newton on
      pair build: half/bin/atomonly/newton
      stencil: half/bin/3d
      bin: standard
Setting up Verlet run ...
  Unit style    : metal
  Current step  : 0
  Time step     : 0.001
Per MPI rank memory allocation (min/avg/max) = 4.363 | 4.363 | 4.363 Mbytes
   Step          Temp          E_pair         E_mol          TotEng         Press          Volume    
         0   1070.68       -6121.5966      0             -5568.15       -2956.6316      93501.061    
     10000   1056.3097     -5403.5842      0             -4857.5657      1885.7902      98115.064    
Loop time of 100.154 on 1 procs for 10000 steps with 4000 atoms

Performance: 8.627 ns/day, 2.782 hours/ns, 99.846 timesteps/s, 399.383 katom-step/s
99.6% CPU use with 1 MPI tasks x 1 OpenMP threads

MPI task timing breakdown:
Section |  min time  |  avg time  |  max time  |%varavg| %total
---------------------------------------------------------------
Pair    | 96.555     | 96.555     | 96.555     |   0.0 | 96.41
Neigh   | 2.0612     | 2.0612     | 2.0612     |   0.0 |  2.06
Comm    | 0.30502    | 0.30502    | 0.30502    |   0.0 |  0.30
Output  | 8.0381e-05 | 8.0381e-05 | 8.0381e-05 |   0.0 |  0.00
Modify  | 1.1038     | 1.1038     | 1.1038     |   0.0 |  1.10
Other   |            | 0.129      |            |       |  0.13

Nlocal:           4000 ave        4000 max        4000 min
Histogram: 1 0 0 0 0 0 0 0 0 0
Nghost:           7313 ave        7313 max        7313 min
Histogram: 1 0 0 0 0 0 0 0 0 0
Neighs:         288790 ave      288790 max      288790 min
Histogram: 1 0 0 0 0 0 0 0 0 0

Total # of neighbors = 288790
Ave neighs/atom = 72.1975
Neighbor list builds = 251
Dangerous builds = 0
Setting up Verlet run ...
  Unit style    : metal
  Current step  : 10000
  Time step     : 0.001
Per MPI rank memory allocation (min/avg/max) = 4.748 | 4.748 | 4.748 Mbytes
   Step          Temp          E_pair         E_mol          TotEng         Press          Volume    
     10000   1056.3097     -5403.5842      0             -4857.5657      1885.7902      98115.064    
    100000   1053.2776     -5345.9343      0             -4801.4832      441.12746      99345.247    
Loop time of 904.321 on 1 procs for 90000 steps with 4000 atoms

Performance: 8.599 ns/day, 2.791 hours/ns, 99.522 timesteps/s, 398.089 katom-step/s
99.6% CPU use with 1 MPI tasks x 1 OpenMP threads

MPI task timing breakdown:
Section |  min time  |  avg time  |  max time  |%varavg| %total
---------------------------------------------------------------
Pair    | 871.72     | 871.72     | 871.72     |   0.0 | 96.39
Neigh   | 18.74      | 18.74      | 18.74      |   0.0 |  2.07
Comm    | 2.6553     | 2.6553     | 2.6553     |   0.0 |  0.29
Output  | 0.084813   | 0.084813   | 0.084813   |   0.0 |  0.01
Modify  | 9.9816     | 9.9816     | 9.9816     |   0.0 |  1.10
Other   |            | 1.143      |            |       |  0.13

Nlocal:           4000 ave        4000 max        4000 min
Histogram: 1 0 0 0 0 0 0 0 0 0
Nghost:           7306 ave        7306 max        7306 min
Histogram: 1 0 0 0 0 0 0 0 0 0
Neighs:         286794 ave      286794 max      286794 min
Histogram: 1 0 0 0 0 0 0 0 0 0

Total # of neighbors = 286794
Ave neighs/atom = 71.6985
Neighbor list builds = 2276
Dangerous builds = 0
Setting up cg style minimization ...
  Unit style    : metal
  Current step  : 100000
Per MPI rank memory allocation (min/avg/max) = 5.876 | 5.876 | 5.876 Mbytes
   Step          Temp          E_pair         E_mol          TotEng         Press          Volume    
    100000   1053.2776     -5345.9343      0             -4801.4832      441.12746      99345.247    
    100237   1053.2776     -6037.7528      0             -5493.3017     -26911.402      99345.247    
Loop time of 3.33009 on 1 procs for 237 steps with 4000 atoms

99.7% CPU use with 1 MPI tasks x 1 OpenMP threads

Minimization stats:
  Stopping criterion = linesearch alpha is zero
  Energy initial, next-to-last, final = 
     -5345.93429007728  -6037.75279466695  -6037.75279466695
  Force two-norm initial, final = 57.771434 4.2876196e-05
  Force max component initial, final = 2.3366641 8.9034469e-06
  Final line search alpha, max atom move = 2.1395891e-07 1.9049718e-12
  Iterations, force evaluations = 237 360

MPI task timing breakdown:
Section |  min time  |  avg time  |  max time  |%varavg| %total
---------------------------------------------------------------
Pair    | 3.2424     | 3.2424     | 3.2424     |   0.0 | 97.37
Neigh   | 0.055614   | 0.055614   | 0.055614   |   0.0 |  1.67
Comm    | 0.010242   | 0.010242   | 0.010242   |   0.0 |  0.31
Output  | 0          | 0          | 0          |   0.0 |  0.00
Modify  | 0          | 0          | 0          |   0.0 |  0.00
Other   |            | 0.02179    |            |       |  0.65

Nlocal:           4000 ave        4000 max        4000 min
Histogram: 1 0 0 0 0 0 0 0 0 0
Nghost:           7290 ave        7290 max        7290 min
Histogram: 1 0 0 0 0 0 0 0 0 0
Neighs:         291528 ave      291528 max      291528 min
Histogram: 1 0 0 0 0 0 0 0 0 0

Total # of neighbors = 291528
Ave neighs/atom = 72.882
Neighbor list builds = 7
Dangerous builds = 0
Total wall time: 0:16:47
