LAMMPS (29 Aug 2024)
OMP_NUM_THREADS environment is not set. Defaulting to 1 thread. (src/comm.cpp:98)
  using 1 OpenMP thread(s) per MPI task
Lattice spacing in x,y,z = 3.2094 5.5588439 5.2409283
Created orthogonal box = (0 0 0) to (32.094 55.588439 52.409283)
  1 by 1 by 1 MPI processor grid
Created 4000 atoms
  using lattice units in orthogonal box = (0 0 0) to (32.094 55.588439 52.409283)
  create_atoms CPU = 0.001 seconds
Neighbor list info ...
  update: every = 1 steps, delay = 0 steps, check = yes
  max neighbors/atom: 2000, page size: 100000
  master list distance cutoff = 9.5
  ghost atom cutoff = 9.5
  binsize = 4.75, bins = 7 12 12
  1 neighbor lists, perpetual/occasional/extra = 1 0 0
  (1) pair eam/fs, perpetual
      attributes: half, newton on
      pair build: half/bin/atomonly/newton
      stencil: half/bin/3d
      bin: standard
Setting up Verlet run ...
  Unit style    : metal
  Current step  : 0
  Time step     : 0.001
Per MPI rank memory allocation (min/avg/max) = 4.363 | 4.363 | 4.363 Mbytes
   Step          Temp          E_pair         E_mol          TotEng         Press          Volume    
         0   1292.2        -6121.5966      0             -5453.6438     -1648.5599      93501.061    
     10000   1277.6218     -4726.6531      0             -4066.236      -1201.1392      113387.39    
Loop time of 93.5498 on 1 procs for 10000 steps with 4000 atoms

Performance: 9.236 ns/day, 2.599 hours/ns, 106.895 timesteps/s, 427.580 katom-step/s
99.6% CPU use with 1 MPI tasks x 1 OpenMP threads

MPI task timing breakdown:
Section |  min time  |  avg time  |  max time  |%varavg| %total
---------------------------------------------------------------
Pair    | 89.928     | 89.928     | 89.928     |   0.0 | 96.13
Neigh   | 2.0993     | 2.0993     | 2.0993     |   0.0 |  2.24
Comm    | 0.28829    | 0.28829    | 0.28829    |   0.0 |  0.31
Output  | 6.9601e-05 | 6.9601e-05 | 6.9601e-05 |   0.0 |  0.00
Modify  | 1.1097     | 1.1097     | 1.1097     |   0.0 |  1.19
Other   |            | 0.124      |            |       |  0.13

Nlocal:           4000 ave        4000 max        4000 min
Histogram: 1 0 0 0 0 0 0 0 0 0
Nghost:           6964 ave        6964 max        6964 min
Histogram: 1 0 0 0 0 0 0 0 0 0
Neighs:         252941 ave      252941 max      252941 min
Histogram: 1 0 0 0 0 0 0 0 0 0

Total # of neighbors = 252941
Ave neighs/atom = 63.23525
Neighbor list builds = 281
Dangerous builds = 0
Setting up Verlet run ...
  Unit style    : metal
  Current step  : 10000
  Time step     : 0.001
Per MPI rank memory allocation (min/avg/max) = 4.75 | 4.75 | 4.75 Mbytes
   Step          Temp          E_pair         E_mol          TotEng         Press          Volume    
     10000   1277.6218     -4726.6531      0             -4066.236      -1201.1392      113387.39    
    100000   1264.5244     -4681.9359      0             -4028.2889     -1061.2259      115169.3     
Loop time of 832.115 on 1 procs for 90000 steps with 4000 atoms

Performance: 9.345 ns/day, 2.568 hours/ns, 108.158 timesteps/s, 432.632 katom-step/s
99.6% CPU use with 1 MPI tasks x 1 OpenMP threads

MPI task timing breakdown:
Section |  min time  |  avg time  |  max time  |%varavg| %total
---------------------------------------------------------------
Pair    | 799.18     | 799.18     | 799.18     |   0.0 | 96.04
Neigh   | 19.138     | 19.138     | 19.138     |   0.0 |  2.30
Comm    | 2.5813     | 2.5813     | 2.5813     |   0.0 |  0.31
Output  | 0.088946   | 0.088946   | 0.088946   |   0.0 |  0.01
Modify  | 9.9952     | 9.9952     | 9.9952     |   0.0 |  1.20
Other   |            | 1.127      |            |       |  0.14

Nlocal:           4000 ave        4000 max        4000 min
Histogram: 1 0 0 0 0 0 0 0 0 0
Nghost:           6950 ave        6950 max        6950 min
Histogram: 1 0 0 0 0 0 0 0 0 0
Neighs:         249502 ave      249502 max      249502 min
Histogram: 1 0 0 0 0 0 0 0 0 0

Total # of neighbors = 249502
Ave neighs/atom = 62.3755
Neighbor list builds = 2583
Dangerous builds = 0
Setting up cg style minimization ...
  Unit style    : metal
  Current step  : 100000
Per MPI rank memory allocation (min/avg/max) = 5.875 | 5.875 | 5.875 Mbytes
   Step          Temp          E_pair         E_mol          TotEng         Press          Volume    
    100000   1264.5244     -4681.9359      0             -4028.2889     -1061.2259      115169.3     
    102520   1264.5244     -5623.4297      0             -4969.7827     -7033.3334      115169.3     
Loop time of 38.3422 on 1 procs for 2520 steps with 4000 atoms

99.6% CPU use with 1 MPI tasks x 1 OpenMP threads

Minimization stats:
  Stopping criterion = linesearch alpha is zero
  Energy initial, next-to-last, final = 
     -4681.93589185593  -5623.42969316387  -5623.42969316387
  Force two-norm initial, final = 55.278337 4.4215073e-05
  Force max component initial, final = 2.1706295 1.1128766e-05
  Final line search alpha, max atom move = 0.034873781 3.8810215e-07
  Iterations, force evaluations = 2520 4035

MPI task timing breakdown:
Section |  min time  |  avg time  |  max time  |%varavg| %total
---------------------------------------------------------------
Pair    | 37.473     | 37.473     | 37.473     |   0.0 | 97.73
Neigh   | 0.50665    | 0.50665    | 0.50665    |   0.0 |  1.32
Comm    | 0.11557    | 0.11557    | 0.11557    |   0.0 |  0.30
Output  | 0          | 0          | 0          |   0.0 |  0.00
Modify  | 0          | 0          | 0          |   0.0 |  0.00
Other   |            | 0.2465     |            |       |  0.64

Nlocal:           4000 ave        4000 max        4000 min
Histogram: 1 0 0 0 0 0 0 0 0 0
Nghost:           6973 ave        6973 max        6973 min
Histogram: 1 0 0 0 0 0 0 0 0 0
Neighs:         256162 ave      256162 max      256162 min
Histogram: 1 0 0 0 0 0 0 0 0 0

Total # of neighbors = 256162
Ave neighs/atom = 64.0405
Neighbor list builds = 71
Dangerous builds = 0
Total wall time: 0:16:04
