LAMMPS (29 Aug 2024)
OMP_NUM_THREADS environment is not set. Defaulting to 1 thread. (src/comm.cpp:98)
  using 1 OpenMP thread(s) per MPI task
Lattice spacing in x,y,z = 3.2094 5.5588439 5.2409283
Created orthogonal box = (0 0 0) to (32.094 55.588439 52.409283)
  1 by 1 by 1 MPI processor grid
Created 4000 atoms
  using lattice units in orthogonal box = (0 0 0) to (32.094 55.588439 52.409283)
  create_atoms CPU = 0.001 seconds
Neighbor list info ...
  update: every = 1 steps, delay = 0 steps, check = yes
  max neighbors/atom: 2000, page size: 100000
  master list distance cutoff = 9.5
  ghost atom cutoff = 9.5
  binsize = 4.75, bins = 7 12 12
  1 neighbor lists, perpetual/occasional/extra = 1 0 0
  (1) pair eam/fs, perpetual
      attributes: half, newton on
      pair build: half/bin/atomonly/newton
      stencil: half/bin/3d
      bin: standard
Setting up Verlet run ...
  Unit style    : metal
  Current step  : 0
  Time step     : 0.001
Per MPI rank memory allocation (min/avg/max) = 4.363 | 4.363 | 4.363 Mbytes
   Step          Temp          E_pair         E_mol          TotEng         Press          Volume    
         0   369.2         -6121.5966      0             -5930.7529     -7098.8586      93501.061    
     10000   366.56187     -5925.6168      0             -5736.1369      278.94258      93027.856    
Loop time of 98.6291 on 1 procs for 10000 steps with 4000 atoms

Performance: 8.760 ns/day, 2.740 hours/ns, 101.390 timesteps/s, 405.560 katom-step/s
99.6% CPU use with 1 MPI tasks x 1 OpenMP threads

MPI task timing breakdown:
Section |  min time  |  avg time  |  max time  |%varavg| %total
---------------------------------------------------------------
Pair    | 96.767     | 96.767     | 96.767     |   0.0 | 98.11
Neigh   | 0.3699     | 0.3699     | 0.3699     |   0.0 |  0.38
Comm    | 0.27178    | 0.27178    | 0.27178    |   0.0 |  0.28
Output  | 8.6121e-05 | 8.6121e-05 | 8.6121e-05 |   0.0 |  0.00
Modify  | 1.0994     | 1.0994     | 1.0994     |   0.0 |  1.11
Other   |            | 0.1213     |            |       |  0.12

Nlocal:           4000 ave        4000 max        4000 min
Histogram: 1 0 0 0 0 0 0 0 0 0
Nghost:           7456 ave        7456 max        7456 min
Histogram: 1 0 0 0 0 0 0 0 0 0
Neighs:         296750 ave      296750 max      296750 min
Histogram: 1 0 0 0 0 0 0 0 0 0

Total # of neighbors = 296750
Ave neighs/atom = 74.1875
Neighbor list builds = 46
Dangerous builds = 0
Setting up Verlet run ...
  Unit style    : metal
  Current step  : 10000
  Time step     : 0.001
Per MPI rank memory allocation (min/avg/max) = 4.751 | 4.751 | 4.751 Mbytes
   Step          Temp          E_pair         E_mol          TotEng         Press          Volume    
     10000   366.56187     -5925.6168      0             -5736.1369      278.94258      93027.856    
    100000   370.00163     -5921.3765      0             -5730.1185      121.25197      93090.264    
Loop time of 887.03 on 1 procs for 90000 steps with 4000 atoms

Performance: 8.766 ns/day, 2.738 hours/ns, 101.462 timesteps/s, 405.849 katom-step/s
99.6% CPU use with 1 MPI tasks x 1 OpenMP threads

MPI task timing breakdown:
Section |  min time  |  avg time  |  max time  |%varavg| %total
---------------------------------------------------------------
Pair    | 871.71     | 871.71     | 871.71     |   0.0 | 98.27
Neigh   | 1.8913     | 1.8913     | 1.8913     |   0.0 |  0.21
Comm    | 2.4014     | 2.4014     | 2.4014     |   0.0 |  0.27
Output  | 0.085226   | 0.085226   | 0.085226   |   0.0 |  0.01
Modify  | 9.8645     | 9.8645     | 9.8645     |   0.0 |  1.11
Other   |            | 1.078      |            |       |  0.12

Nlocal:           4000 ave        4000 max        4000 min
Histogram: 1 0 0 0 0 0 0 0 0 0
Nghost:           7440 ave        7440 max        7440 min
Histogram: 1 0 0 0 0 0 0 0 0 0
Neighs:         296245 ave      296245 max      296245 min
Histogram: 1 0 0 0 0 0 0 0 0 0

Total # of neighbors = 296245
Ave neighs/atom = 74.06125
Neighbor list builds = 236
Dangerous builds = 0
Setting up cg style minimization ...
  Unit style    : metal
  Current step  : 100000
Per MPI rank memory allocation (min/avg/max) = 5.876 | 5.876 | 5.876 Mbytes
   Step          Temp          E_pair         E_mol          TotEng         Press          Volume    
    100000   370.00163     -5921.3765      0             -5730.1185      121.25197      93090.264    
    100098   370.00163     -6123.765       0             -5932.5069     -5442.5171      93090.264    
Loop time of 1.78018 on 1 procs for 98 steps with 4000 atoms

99.7% CPU use with 1 MPI tasks x 1 OpenMP threads

Minimization stats:
  Stopping criterion = linesearch alpha is zero
  Energy initial, next-to-last, final = 
     -5921.37648930007  -6123.76496745579  -6123.76496745579
  Force two-norm initial, final = 37.715349 1.6402224e-05
  Force max component initial, final = 1.3672692 6.280842e-07
  Final line search alpha, max atom move = 3.9415603e-07 2.4756317e-13
  Iterations, force evaluations = 98 202

MPI task timing breakdown:
Section |  min time  |  avg time  |  max time  |%varavg| %total
---------------------------------------------------------------
Pair    | 1.7647     | 1.7647     | 1.7647     |   0.0 | 99.13
Neigh   | 0          | 0          | 0          |   0.0 |  0.00
Comm    | 0.0053533  | 0.0053533  | 0.0053533  |   0.0 |  0.30
Output  | 0          | 0          | 0          |   0.0 |  0.00
Modify  | 0          | 0          | 0          |   0.0 |  0.00
Other   |            | 0.01014    |            |       |  0.57

Nlocal:           4000 ave        4000 max        4000 min
Histogram: 1 0 0 0 0 0 0 0 0 0
Nghost:           7468 ave        7468 max        7468 min
Histogram: 1 0 0 0 0 0 0 0 0 0
Neighs:         296696 ave      296696 max      296696 min
Histogram: 1 0 0 0 0 0 0 0 0 0

Total # of neighbors = 296696
Ave neighs/atom = 74.174
Neighbor list builds = 0
Dangerous builds = 0
Total wall time: 0:16:28
