LAMMPS (29 Aug 2024)
OMP_NUM_THREADS environment is not set. Defaulting to 1 thread. (src/comm.cpp:98)
  using 1 OpenMP thread(s) per MPI task

#---------------------------- Atomic setup ------------------------------------#
units            metal
timestep         0.001
boundary         p p p
lattice          hcp 3.2094
Lattice spacing in x,y,z = 3.2094 5.5588439 5.2409283
region           sim_box block 0 10 0 10 0 10
create_box       1 sim_box
Created orthogonal box = (0 0 0) to (32.094 55.588439 52.409283)
  1 by 1 by 1 MPI processor grid
create_atoms     1 box
Created 4000 atoms
  using lattice units in orthogonal box = (0 0 0) to (32.094 55.588439 52.409283)
  create_atoms CPU = 0.000 seconds

pair_style       eam/fs                                             # interatomic potential (Lennard-Jones, EAM, etc.)
pair_coeff       * * ${potentials_dir}/mg_eam.fs Mg # interatomic potential parameters (ex. eam.alloy Cu_u3.eam)
pair_coeff       * * md/potentials/mg_eam.fs Mg 
pair_modify      tail yes
neigh_modify     delay 0                                                       # neighbor list update frequency (0 = every timestep)
mass             1 24.305                                                 # atomic mass
variable         rnd equal round(random(0,999999,42))

#----------------------------- Equilibriation ---------------------------------#
velocity         all create 406.12 ${rnd} dist gaussian              # initial velocities
velocity         all create 406.12 420940 dist gaussian              
fix              f2 all nph iso 0 0 1.0        # barostat
variable         rnd equal round(random(0,999999,0))
fix              f3 all temp/csvr 406.12 406.12 0.1 ${rnd} # thermostat
fix              f3 all temp/csvr 406.12 406.12 0.1 53464 
run              10000                                           # equilibriation run
Neighbor list info ...
  update: every = 1 steps, delay = 0 steps, check = yes
  max neighbors/atom: 2000, page size: 100000
  master list distance cutoff = 9.5
  ghost atom cutoff = 9.5
  binsize = 4.75, bins = 7 12 12
  1 neighbor lists, perpetual/occasional/extra = 1 0 0
  (1) pair eam/fs, perpetual
      attributes: half, newton on
      pair build: half/bin/atomonly/newton
      stencil: half/bin/3d
      bin: standard
Per MPI rank memory allocation (min/avg/max) = 4.363 | 4.363 | 4.363 Mbytes
   Step          Temp          E_pair         E_mol          TotEng         Press          Volume    
         0   406.12        -6121.5966      0             -5911.6686     -6880.8466      93501.061    
     10000   399.43602     -5902.3023      0             -5695.8293      41.95983       93340.47     
Loop time of 90.593 on 1 procs for 10000 steps with 4000 atoms

Performance: 9.537 ns/day, 2.516 hours/ns, 110.384 timesteps/s, 441.535 katom-step/s
99.6% CPU use with 1 MPI tasks x 1 OpenMP threads

MPI task timing breakdown:
Section |  min time  |  avg time  |  max time  |%varavg| %total
---------------------------------------------------------------
Pair    | 89.12      | 89.12      | 89.12      |   0.0 | 98.37
Neigh   | 0          | 0          | 0          |   0.0 |  0.00
Comm    | 0.25525    | 0.25525    | 0.25525    |   0.0 |  0.28
Output  | 7.9008e-05 | 7.9008e-05 | 7.9008e-05 |   0.0 |  0.00
Modify  | 1.0946     | 1.0946     | 1.0946     |   0.0 |  1.21
Other   |            | 0.1227     |            |       |  0.14

Nlocal:           4000 ave        4000 max        4000 min
Histogram: 1 0 0 0 0 0 0 0 0 0
Nghost:           7299 ave        7299 max        7299 min
Histogram: 1 0 0 0 0 0 0 0 0 0
Neighs:         292000 ave      292000 max      292000 min
Histogram: 1 0 0 0 0 0 0 0 0 0

Total # of neighbors = 292000
Ave neighs/atom = 73
Neighbor list builds = 0
Dangerous builds = 0

#----------------------------- Run simulation ---------------------------------#
dump             d1 all custom 10000 md/data/mg_hcp/dump_0.44.gz id type x y z # snapshots
run              90000
Per MPI rank memory allocation (min/avg/max) = 4.747 | 4.747 | 4.747 Mbytes
   Step          Temp          E_pair         E_mol          TotEng         Press          Volume    
     10000   399.43602     -5902.3023      0             -5695.8293      41.95983       93340.47     
    100000   405.83493     -5898.0536      0             -5688.2729      587.14629      93198.886    
Loop time of 877.998 on 1 procs for 90000 steps with 4000 atoms

Performance: 8.857 ns/day, 2.710 hours/ns, 102.506 timesteps/s, 410.024 katom-step/s
99.6% CPU use with 1 MPI tasks x 1 OpenMP threads

MPI task timing breakdown:
Section |  min time  |  avg time  |  max time  |%varavg| %total
---------------------------------------------------------------
Pair    | 857.85     | 857.85     | 857.85     |   0.0 | 97.71
Neigh   | 6.6181     | 6.6181     | 6.6181     |   0.0 |  0.75
Comm    | 2.462      | 2.462      | 2.462      |   0.0 |  0.28
Output  | 0.084931   | 0.084931   | 0.084931   |   0.0 |  0.01
Modify  | 9.8713     | 9.8713     | 9.8713     |   0.0 |  1.12
Other   |            | 1.11       |            |       |  0.13

Nlocal:           4000 ave        4000 max        4000 min
Histogram: 1 0 0 0 0 0 0 0 0 0
Nghost:           7396 ave        7396 max        7396 min
Histogram: 1 0 0 0 0 0 0 0 0 0
Neighs:         295917 ave      295917 max      295917 min
Histogram: 1 0 0 0 0 0 0 0 0 0

Total # of neighbors = 295917
Ave neighs/atom = 73.97925
Neighbor list builds = 823
Dangerous builds = 0
undump           d1
min_modify       line forcezero
minimize         0 0 100000 100000                                                                               # minimize energy
Per MPI rank memory allocation (min/avg/max) = 5.876 | 5.876 | 5.876 Mbytes
   Step          Temp          E_pair         E_mol          TotEng         Press          Volume    
    100000   405.83493     -5898.0536      0             -5688.2729      587.14629      93198.886    
    100095   405.83493     -6123.2325      0             -5913.4519     -5665.8478      93198.886    
Loop time of 1.68211 on 1 procs for 95 steps with 4000 atoms

99.6% CPU use with 1 MPI tasks x 1 OpenMP threads

Minimization stats:
  Stopping criterion = linesearch alpha is zero
  Energy initial, next-to-last, final = 
     -5898.05357472353  -6123.23252951909  -6123.23252951909
  Force two-norm initial, final = 39.505964 4.0687637e-05
  Force max component initial, final = 1.567809 1.4495166e-06
  Final line search alpha, max atom move = 0.0040053736 5.8058554e-09
  Iterations, force evaluations = 95 191

MPI task timing breakdown:
Section |  min time  |  avg time  |  max time  |%varavg| %total
---------------------------------------------------------------
Pair    | 1.6671     | 1.6671     | 1.6671     |   0.0 | 99.11
Neigh   | 0          | 0          | 0          |   0.0 |  0.00
Comm    | 0.0051669  | 0.0051669  | 0.0051669  |   0.0 |  0.31
Output  | 0          | 0          | 0          |   0.0 |  0.00
Modify  | 0          | 0          | 0          |   0.0 |  0.00
Other   |            | 0.009828   |            |       |  0.58

Nlocal:           4000 ave        4000 max        4000 min
Histogram: 1 0 0 0 0 0 0 0 0 0
Nghost:           7422 ave        7422 max        7422 min
Histogram: 1 0 0 0 0 0 0 0 0 0
Neighs:         296311 ave      296311 max      296311 min
Histogram: 1 0 0 0 0 0 0 0 0 0

Total # of neighbors = 296311
Ave neighs/atom = 74.07775
Neighbor list builds = 0
Dangerous builds = 0
write_dump       all custom md/data/mg_hcp/dump_0.44_relaxed.gz id type x y z
#------------------------------------------------------------------------------#
Total wall time: 0:16:10
