LAMMPS (29 Aug 2024)
OMP_NUM_THREADS environment is not set. Defaulting to 1 thread. (src/comm.cpp:98)
  using 1 OpenMP thread(s) per MPI task

#---------------------------- Atomic setup ------------------------------------#
units            metal
timestep         0.001
boundary         p p p
lattice          hcp 3.2094
Lattice spacing in x,y,z = 3.2094 5.5588439 5.2409283
region           sim_box block 0 10 0 10 0 10
create_box       1 sim_box
Created orthogonal box = (0 0 0) to (32.094 55.588439 52.409283)
  1 by 1 by 1 MPI processor grid
create_atoms     1 box
Created 4000 atoms
  using lattice units in orthogonal box = (0 0 0) to (32.094 55.588439 52.409283)
  create_atoms CPU = 0.001 seconds

pair_style       eam/fs                                             # interatomic potential (Lennard-Jones, EAM, etc.)
pair_coeff       * * ${potentials_dir}/mg_eam.fs Mg # interatomic potential parameters (ex. eam.alloy Cu_u3.eam)
pair_coeff       * * md/potentials/mg_eam.fs Mg 
pair_modify      tail yes
neigh_modify     delay 0                                                       # neighbor list update frequency (0 = every timestep)
mass             1 24.305                                                 # atomic mass
variable         rnd equal round(random(0,999999,42))

#----------------------------- Equilibriation ---------------------------------#
velocity         all create 849.1600000000001 ${rnd} dist gaussian              # initial velocities
velocity         all create 849.1600000000001 420940 dist gaussian              
fix              f2 all nph iso 0 0 1.0        # barostat
variable         rnd equal round(random(0,999999,0))
fix              f3 all temp/csvr 849.1600000000001 849.1600000000001 0.1 ${rnd} # thermostat
fix              f3 all temp/csvr 849.1600000000001 849.1600000000001 0.1 53464 
run              10000                                           # equilibriation run
Neighbor list info ...
  update: every = 1 steps, delay = 0 steps, check = yes
  max neighbors/atom: 2000, page size: 100000
  master list distance cutoff = 9.5
  ghost atom cutoff = 9.5
  binsize = 4.75, bins = 7 12 12
  1 neighbor lists, perpetual/occasional/extra = 1 0 0
  (1) pair eam/fs, perpetual
      attributes: half, newton on
      pair build: half/bin/atomonly/newton
      stencil: half/bin/3d
      bin: standard
Per MPI rank memory allocation (min/avg/max) = 4.363 | 4.363 | 4.363 Mbytes
   Step          Temp          E_pair         E_mol          TotEng         Press          Volume    
         0   849.16        -6121.5966      0             -5682.6562     -4264.7033      93501.061    
     10000   853.90491     -5617.1671      0             -5175.774       303.75964      96022.438    
Loop time of 100.711 on 1 procs for 10000 steps with 4000 atoms

Performance: 8.579 ns/day, 2.798 hours/ns, 99.294 timesteps/s, 397.178 katom-step/s
99.6% CPU use with 1 MPI tasks x 1 OpenMP threads

MPI task timing breakdown:
Section |  min time  |  avg time  |  max time  |%varavg| %total
---------------------------------------------------------------
Pair    | 97.425     | 97.425     | 97.425     |   0.0 | 96.74
Neigh   | 1.761      | 1.761      | 1.761      |   0.0 |  1.75
Comm    | 0.2929     | 0.2929     | 0.2929     |   0.0 |  0.29
Output  | 8.2926e-05 | 8.2926e-05 | 8.2926e-05 |   0.0 |  0.00
Modify  | 1.1028     | 1.1028     | 1.1028     |   0.0 |  1.09
Other   |            | 0.129      |            |       |  0.13

Nlocal:           4000 ave        4000 max        4000 min
Histogram: 1 0 0 0 0 0 0 0 0 0
Nghost:           7403 ave        7403 max        7403 min
Histogram: 1 0 0 0 0 0 0 0 0 0
Neighs:         291989 ave      291989 max      291989 min
Histogram: 1 0 0 0 0 0 0 0 0 0

Total # of neighbors = 291989
Ave neighs/atom = 72.99725
Neighbor list builds = 217
Dangerous builds = 0

#----------------------------- Run simulation ---------------------------------#
dump             d1 all custom 10000 md/data/mg_hcp/dump_0.92.gz id type x y z # snapshots
run              90000
Per MPI rank memory allocation (min/avg/max) = 4.748 | 4.748 | 4.748 Mbytes
   Step          Temp          E_pair         E_mol          TotEng         Press          Volume    
     10000   853.90491     -5617.1671      0             -5175.774       303.75964      96022.438    
    100000   853.48406     -5598.7621      0             -5157.5866     -421.90643      96411.925    
Loop time of 908.327 on 1 procs for 90000 steps with 4000 atoms

Performance: 8.561 ns/day, 2.803 hours/ns, 99.083 timesteps/s, 396.333 katom-step/s
99.6% CPU use with 1 MPI tasks x 1 OpenMP threads

MPI task timing breakdown:
Section |  min time  |  avg time  |  max time  |%varavg| %total
---------------------------------------------------------------
Pair    | 878.49     | 878.49     | 878.49     |   0.0 | 96.72
Neigh   | 16.041     | 16.041     | 16.041     |   0.0 |  1.77
Comm    | 2.6282     | 2.6282     | 2.6282     |   0.0 |  0.29
Output  | 0.088268   | 0.088268   | 0.088268   |   0.0 |  0.01
Modify  | 9.9085     | 9.9085     | 9.9085     |   0.0 |  1.09
Other   |            | 1.171      |            |       |  0.13

Nlocal:           4000 ave        4000 max        4000 min
Histogram: 1 0 0 0 0 0 0 0 0 0
Nghost:           7349 ave        7349 max        7349 min
Histogram: 1 0 0 0 0 0 0 0 0 0
Neighs:         290932 ave      290932 max      290932 min
Histogram: 1 0 0 0 0 0 0 0 0 0

Total # of neighbors = 290932
Ave neighs/atom = 72.733
Neighbor list builds = 1969
Dangerous builds = 0
undump           d1
min_modify       line forcezero
minimize         0 0 100000 100000                                                                               # minimize energy
Per MPI rank memory allocation (min/avg/max) = 5.876 | 5.876 | 5.876 Mbytes
   Step          Temp          E_pair         E_mol          TotEng         Press          Volume    
    100000   853.48406     -5598.7621      0             -5157.5866     -421.90643      96411.925    
    100097   853.48406     -6093.9792      0             -5652.8037     -16301.075      96411.925    
Loop time of 1.60643 on 1 procs for 97 steps with 4000 atoms

99.6% CPU use with 1 MPI tasks x 1 OpenMP threads

Minimization stats:
  Stopping criterion = linesearch alpha is zero
  Energy initial, next-to-last, final = 
     -5598.76212826205   -6093.9792386257   -6093.9792386257
  Force two-norm initial, final = 53.010047 2.5928366e-05
  Force max component initial, final = 1.8812954 9.7321176e-07
  Final line search alpha, max atom move = 0.0044609198 4.3414196e-09
  Iterations, force evaluations = 97 177

MPI task timing breakdown:
Section |  min time  |  avg time  |  max time  |%varavg| %total
---------------------------------------------------------------
Pair    | 1.584      | 1.584      | 1.584      |   0.0 | 98.61
Neigh   | 0.0078799  | 0.0078799  | 0.0078799  |   0.0 |  0.49
Comm    | 0.0048047  | 0.0048047  | 0.0048047  |   0.0 |  0.30
Output  | 0          | 0          | 0          |   0.0 |  0.00
Modify  | 0          | 0          | 0          |   0.0 |  0.00
Other   |            | 0.009716   |            |       |  0.60

Nlocal:           4000 ave        4000 max        4000 min
Histogram: 1 0 0 0 0 0 0 0 0 0
Nghost:           7298 ave        7298 max        7298 min
Histogram: 1 0 0 0 0 0 0 0 0 0
Neighs:         291018 ave      291018 max      291018 min
Histogram: 1 0 0 0 0 0 0 0 0 0

Total # of neighbors = 291018
Ave neighs/atom = 72.7545
Neighbor list builds = 1
Dangerous builds = 0
write_dump       all custom md/data/mg_hcp/dump_0.92_relaxed.gz id type x y z
#------------------------------------------------------------------------------#
Total wall time: 0:16:50
