LAMMPS (29 Aug 2024)
OMP_NUM_THREADS environment is not set. Defaulting to 1 thread. (src/comm.cpp:98)
  using 1 OpenMP thread(s) per MPI task
Lattice spacing in x,y,z = 3.2094 5.5588439 5.2409283
Created orthogonal box = (0 0 0) to (32.094 55.588439 52.409283)
  1 by 1 by 1 MPI processor grid
Created 4000 atoms
  using lattice units in orthogonal box = (0 0 0) to (32.094 55.588439 52.409283)
  create_atoms CPU = 0.001 seconds
Neighbor list info ...
  update: every = 1 steps, delay = 0 steps, check = yes
  max neighbors/atom: 2000, page size: 100000
  master list distance cutoff = 9.5
  ghost atom cutoff = 9.5
  binsize = 4.75, bins = 7 12 12
  1 neighbor lists, perpetual/occasional/extra = 1 0 0
  (1) pair eam/fs, perpetual
      attributes: half, newton on
      pair build: half/bin/atomonly/newton
      stencil: half/bin/3d
      bin: standard
Setting up Verlet run ...
  Unit style    : metal
  Current step  : 0
  Time step     : 0.001
Per MPI rank memory allocation (min/avg/max) = 4.363 | 4.363 | 4.363 Mbytes
   Step          Temp          E_pair         E_mol          TotEng         Press          Volume    
         0   184.6         -6121.5966      0             -6026.1748     -8188.9183      93501.061    
     10000   182.516       -6030.9692      0             -5936.6246      47.261734      92063.468    
Loop time of 99.3675 on 1 procs for 10000 steps with 4000 atoms

Performance: 8.695 ns/day, 2.760 hours/ns, 100.637 timesteps/s, 402.546 katom-step/s
99.5% CPU use with 1 MPI tasks x 1 OpenMP threads

MPI task timing breakdown:
Section |  min time  |  avg time  |  max time  |%varavg| %total
---------------------------------------------------------------
Pair    | 97.86      | 97.86      | 97.86      |   0.0 | 98.48
Neigh   | 0.0088962  | 0.0088962  | 0.0088962  |   0.0 |  0.01
Comm    | 0.27821    | 0.27821    | 0.27821    |   0.0 |  0.28
Output  | 0.0001991  | 0.0001991  | 0.0001991  |   0.0 |  0.00
Modify  | 1.0999     | 1.0999     | 1.0999     |   0.0 |  1.11
Other   |            | 0.1207     |            |       |  0.12

Nlocal:           4000 ave        4000 max        4000 min
Histogram: 1 0 0 0 0 0 0 0 0 0
Nghost:           7583 ave        7583 max        7583 min
Histogram: 1 0 0 0 0 0 0 0 0 0
Neighs:         301088 ave      301088 max      301088 min
Histogram: 1 0 0 0 0 0 0 0 0 0

Total # of neighbors = 301088
Ave neighs/atom = 75.272
Neighbor list builds = 1
Dangerous builds = 0
Setting up Verlet run ...
  Unit style    : metal
  Current step  : 10000
  Time step     : 0.001
Per MPI rank memory allocation (min/avg/max) = 4.749 | 4.749 | 4.749 Mbytes
   Step          Temp          E_pair         E_mol          TotEng         Press          Volume    
     10000   182.516       -6030.9692      0             -5936.6246      47.261734      92063.468    
    100000   186.23009     -6029.4165      0             -5933.1521     -63.291616      92101.274    
Loop time of 898.641 on 1 procs for 90000 steps with 4000 atoms

Performance: 8.653 ns/day, 2.774 hours/ns, 100.151 timesteps/s, 400.605 katom-step/s
99.6% CPU use with 1 MPI tasks x 1 OpenMP threads

MPI task timing breakdown:
Section |  min time  |  avg time  |  max time  |%varavg| %total
---------------------------------------------------------------
Pair    | 884.87     | 884.87     | 884.87     |   0.0 | 98.47
Neigh   | 0          | 0          | 0          |   0.0 |  0.00
Comm    | 2.4069     | 2.4069     | 2.4069     |   0.0 |  0.27
Output  | 0.13601    | 0.13601    | 0.13601    |   0.0 |  0.02
Modify  | 10.096     | 10.096     | 10.096     |   0.0 |  1.12
Other   |            | 1.128      |            |       |  0.13

Nlocal:           4000 ave        4000 max        4000 min
Histogram: 1 0 0 0 0 0 0 0 0 0
Nghost:           7468 ave        7468 max        7468 min
Histogram: 1 0 0 0 0 0 0 0 0 0
Neighs:         297789 ave      297789 max      297789 min
Histogram: 1 0 0 0 0 0 0 0 0 0

Total # of neighbors = 297789
Ave neighs/atom = 74.44725
Neighbor list builds = 0
Dangerous builds = 0
Setting up cg style minimization ...
  Unit style    : metal
  Current step  : 100000
Per MPI rank memory allocation (min/avg/max) = 5.874 | 5.874 | 5.874 Mbytes
   Step          Temp          E_pair         E_mol          TotEng         Press          Volume    
    100000   186.23009     -6029.4165      0             -5933.1521     -63.291616      92101.274    
    100102   186.23009     -6127.2698      0             -6031.0054     -2612.5818      92101.274    
Loop time of 1.99335 on 1 procs for 102 steps with 4000 atoms

99.7% CPU use with 1 MPI tasks x 1 OpenMP threads

Minimization stats:
  Stopping criterion = linesearch alpha is zero
  Energy initial, next-to-last, final = 
     -6029.41650768058  -6127.26984634605  -6127.26984634605
  Force two-norm initial, final = 27.073827 1.553631e-05
  Force max component initial, final = 0.97039079 5.9451119e-07
  Final line search alpha, max atom move = 0.004001878 2.3791612e-09
  Iterations, force evaluations = 102 215

MPI task timing breakdown:
Section |  min time  |  avg time  |  max time  |%varavg| %total
---------------------------------------------------------------
Pair    | 1.9766     | 1.9766     | 1.9766     |   0.0 | 99.16
Neigh   | 0          | 0          | 0          |   0.0 |  0.00
Comm    | 0.0058323  | 0.0058323  | 0.0058323  |   0.0 |  0.29
Output  | 0          | 0          | 0          |   0.0 |  0.00
Modify  | 0          | 0          | 0          |   0.0 |  0.00
Other   |            | 0.01088    |            |       |  0.55

Nlocal:           4000 ave        4000 max        4000 min
Histogram: 1 0 0 0 0 0 0 0 0 0
Nghost:           7453 ave        7453 max        7453 min
Histogram: 1 0 0 0 0 0 0 0 0 0
Neighs:         297843 ave      297843 max      297843 min
Histogram: 1 0 0 0 0 0 0 0 0 0

Total # of neighbors = 297843
Ave neighs/atom = 74.46075
Neighbor list builds = 0
Dangerous builds = 0
Total wall time: 0:16:40
