LAMMPS (29 Aug 2024)
OMP_NUM_THREADS environment is not set. Defaulting to 1 thread. (src/comm.cpp:98)
  using 1 OpenMP thread(s) per MPI task
Lattice spacing in x,y,z = 3.2094 5.5588439 5.2409283
Created orthogonal box = (0 0 0) to (32.094 55.588439 52.409283)
  1 by 1 by 1 MPI processor grid
Created 4000 atoms
  using lattice units in orthogonal box = (0 0 0) to (32.094 55.588439 52.409283)
  create_atoms CPU = 0.001 seconds
Neighbor list info ...
  update: every = 1 steps, delay = 0 steps, check = yes
  max neighbors/atom: 2000, page size: 100000
  master list distance cutoff = 9.5
  ghost atom cutoff = 9.5
  binsize = 4.75, bins = 7 12 12
  1 neighbor lists, perpetual/occasional/extra = 1 0 0
  (1) pair eam/fs, perpetual
      attributes: half, newton on
      pair build: half/bin/atomonly/newton
      stencil: half/bin/3d
      bin: standard
Setting up Verlet run ...
  Unit style    : metal
  Current step  : 0
  Time step     : 0.001
Per MPI rank memory allocation (min/avg/max) = 4.363 | 4.363 | 4.363 Mbytes
   Step          Temp          E_pair         E_mol          TotEng         Press          Volume    
         0   1218.36       -6121.5966      0             -5491.8125     -2084.5838      93501.061    
     10000   1198.1487     -4802.7983      0             -4183.4617     -703.73343      110880.42    
Loop time of 95.1458 on 1 procs for 10000 steps with 4000 atoms

Performance: 9.081 ns/day, 2.643 hours/ns, 105.102 timesteps/s, 420.407 katom-step/s
99.6% CPU use with 1 MPI tasks x 1 OpenMP threads

MPI task timing breakdown:
Section |  min time  |  avg time  |  max time  |%varavg| %total
---------------------------------------------------------------
Pair    | 91.555     | 91.555     | 91.555     |   0.0 | 96.23
Neigh   | 2.0594     | 2.0594     | 2.0594     |   0.0 |  2.16
Comm    | 0.29066    | 0.29066    | 0.29066    |   0.0 |  0.31
Output  | 8.4489e-05 | 8.4489e-05 | 8.4489e-05 |   0.0 |  0.00
Modify  | 1.1185     | 1.1185     | 1.1185     |   0.0 |  1.18
Other   |            | 0.1221     |            |       |  0.13

Nlocal:           4000 ave        4000 max        4000 min
Histogram: 1 0 0 0 0 0 0 0 0 0
Nghost:           7062 ave        7062 max        7062 min
Histogram: 1 0 0 0 0 0 0 0 0 0
Neighs:         258875 ave      258875 max      258875 min
Histogram: 1 0 0 0 0 0 0 0 0 0

Total # of neighbors = 258875
Ave neighs/atom = 64.71875
Neighbor list builds = 273
Dangerous builds = 0
Setting up Verlet run ...
  Unit style    : metal
  Current step  : 10000
  Time step     : 0.001
Per MPI rank memory allocation (min/avg/max) = 4.75 | 4.75 | 4.75 Mbytes
   Step          Temp          E_pair         E_mol          TotEng         Press          Volume    
     10000   1198.1487     -4802.7983      0             -4183.4617     -703.73343      110880.42    
    100000   1208.5535     -4781.8307      0             -4157.1157      213.81934      111014.83    
Loop time of 848.349 on 1 procs for 90000 steps with 4000 atoms

Performance: 9.166 ns/day, 2.618 hours/ns, 106.088 timesteps/s, 424.354 katom-step/s
99.6% CPU use with 1 MPI tasks x 1 OpenMP threads

MPI task timing breakdown:
Section |  min time  |  avg time  |  max time  |%varavg| %total
---------------------------------------------------------------
Pair    | 815.87     | 815.87     | 815.87     |   0.0 | 96.17
Neigh   | 18.535     | 18.535     | 18.535     |   0.0 |  2.18
Comm    | 2.6272     | 2.6272     | 2.6272     |   0.0 |  0.31
Output  | 0.089601   | 0.089601   | 0.089601   |   0.0 |  0.01
Modify  | 10.095     | 10.095     | 10.095     |   0.0 |  1.19
Other   |            | 1.13       |            |       |  0.13

Nlocal:           4000 ave        4000 max        4000 min
Histogram: 1 0 0 0 0 0 0 0 0 0
Nghost:           7116 ave        7116 max        7116 min
Histogram: 1 0 0 0 0 0 0 0 0 0
Neighs:         258679 ave      258679 max      258679 min
Histogram: 1 0 0 0 0 0 0 0 0 0

Total # of neighbors = 258679
Ave neighs/atom = 64.66975
Neighbor list builds = 2492
Dangerous builds = 0
Setting up cg style minimization ...
  Unit style    : metal
  Current step  : 100000
Per MPI rank memory allocation (min/avg/max) = 5.875 | 5.875 | 5.875 Mbytes
   Step          Temp          E_pair         E_mol          TotEng         Press          Volume    
    100000   1208.5535     -4781.8307      0             -4157.1157      213.81934      111014.83    
    102375   1208.5535     -5682.7114      0             -5057.9964     -7430.1479      111014.83    
Loop time of 37.3521 on 1 procs for 2375 steps with 4000 atoms

99.6% CPU use with 1 MPI tasks x 1 OpenMP threads

Minimization stats:
  Stopping criterion = linesearch alpha is zero
  Energy initial, next-to-last, final = 
     -4781.83067629392  -5682.71137766317  -5682.71137766317
  Force two-norm initial, final = 56.009397 3.5703426e-05
  Force max component initial, final = 2.1951994 1.0669964e-05
  Final line search alpha, max atom move = 1.8798376e-07 2.0057799e-12
  Iterations, force evaluations = 2375 3778

MPI task timing breakdown:
Section |  min time  |  avg time  |  max time  |%varavg| %total
---------------------------------------------------------------
Pair    | 36.533     | 36.533     | 36.533     |   0.0 | 97.81
Neigh   | 0.47758    | 0.47758    | 0.47758    |   0.0 |  1.28
Comm    | 0.10905    | 0.10905    | 0.10905    |   0.0 |  0.29
Output  | 0          | 0          | 0          |   0.0 |  0.00
Modify  | 0          | 0          | 0          |   0.0 |  0.00
Other   |            | 0.2324     |            |       |  0.62

Nlocal:           4000 ave        4000 max        4000 min
Histogram: 1 0 0 0 0 0 0 0 0 0
Nghost:           6992 ave        6992 max        6992 min
Histogram: 1 0 0 0 0 0 0 0 0 0
Neighs:         267875 ave      267875 max      267875 min
Histogram: 1 0 0 0 0 0 0 0 0 0

Total # of neighbors = 267875
Ave neighs/atom = 66.96875
Neighbor list builds = 66
Dangerous builds = 0
Total wall time: 0:16:20
