LAMMPS (29 Aug 2024)
OMP_NUM_THREADS environment is not set. Defaulting to 1 thread. (src/comm.cpp:98)
  using 1 OpenMP thread(s) per MPI task

#---------------------------- Atomic setup ------------------------------------#
units            metal
timestep         0.001
boundary         p p p
lattice          hcp 3.2094
Lattice spacing in x,y,z = 3.2094 5.5588439 5.2409283
region           sim_box block 0 10 0 10 0 10
create_box       1 sim_box
Created orthogonal box = (0 0 0) to (32.094 55.588439 52.409283)
  1 by 1 by 1 MPI processor grid
create_atoms     1 box
Created 4000 atoms
  using lattice units in orthogonal box = (0 0 0) to (32.094 55.588439 52.409283)
  create_atoms CPU = 0.001 seconds

pair_style       eam/fs                                             # interatomic potential (Lennard-Jones, EAM, etc.)
pair_coeff       * * ${potentials_dir}/mg_eam.fs Mg # interatomic potential parameters (ex. eam.alloy Cu_u3.eam)
pair_coeff       * * md/potentials/mg_eam.fs Mg 
pair_modify      tail yes
neigh_modify     delay 0                                                       # neighbor list update frequency (0 = every timestep)
mass             1 24.305                                                 # atomic mass
variable         rnd equal round(random(0,999999,42))

#----------------------------- Equilibriation ---------------------------------#
velocity         all create 1439.88 ${rnd} dist gaussian              # initial velocities
velocity         all create 1439.88 420940 dist gaussian              
fix              f2 all nph iso 0 0 1.0        # barostat
variable         rnd equal round(random(0,999999,0))
fix              f3 all temp/csvr 1439.88 1439.88 0.1 ${rnd} # thermostat
fix              f3 all temp/csvr 1439.88 1439.88 0.1 53464 
run              10000                                           # equilibriation run
Neighbor list info ...
  update: every = 1 steps, delay = 0 steps, check = yes
  max neighbors/atom: 2000, page size: 100000
  master list distance cutoff = 9.5
  ghost atom cutoff = 9.5
  binsize = 4.75, bins = 7 12 12
  1 neighbor lists, perpetual/occasional/extra = 1 0 0
  (1) pair eam/fs, perpetual
      attributes: half, newton on
      pair build: half/bin/atomonly/newton
      stencil: half/bin/3d
      bin: standard
Per MPI rank memory allocation (min/avg/max) = 4.363 | 4.363 | 4.363 Mbytes
   Step          Temp          E_pair         E_mol          TotEng         Press          Volume    
         0   1439.88       -6121.5966      0             -5377.3063     -776.5121       93501.061    
     10000   1423.1513     -4526.7946      0             -3791.1516     -106.11968      121160.17    
Loop time of 89.5649 on 1 procs for 10000 steps with 4000 atoms

Performance: 9.647 ns/day, 2.488 hours/ns, 111.651 timesteps/s, 446.604 katom-step/s
99.6% CPU use with 1 MPI tasks x 1 OpenMP threads

MPI task timing breakdown:
Section |  min time  |  avg time  |  max time  |%varavg| %total
---------------------------------------------------------------
Pair    | 85.839     | 85.839     | 85.839     |   0.0 | 95.84
Neigh   | 2.1928     | 2.1928     | 2.1928     |   0.0 |  2.45
Comm    | 0.28739    | 0.28739    | 0.28739    |   0.0 |  0.32
Output  | 7.9008e-05 | 7.9008e-05 | 7.9008e-05 |   0.0 |  0.00
Modify  | 1.1201     | 1.1201     | 1.1201     |   0.0 |  1.25
Other   |            | 0.1257     |            |       |  0.14

Nlocal:           4000 ave        4000 max        4000 min
Histogram: 1 0 0 0 0 0 0 0 0 0
Nghost:           6842 ave        6842 max        6842 min
Histogram: 1 0 0 0 0 0 0 0 0 0
Neighs:         236807 ave      236807 max      236807 min
Histogram: 1 0 0 0 0 0 0 0 0 0

Total # of neighbors = 236807
Ave neighs/atom = 59.20175
Neighbor list builds = 302
Dangerous builds = 0

#----------------------------- Run simulation ---------------------------------#
dump             d1 all custom 10000 md/data/mg_hcp/dump_1.56.gz id type x y z # snapshots
run              90000
Per MPI rank memory allocation (min/avg/max) = 4.751 | 4.751 | 4.751 Mbytes
   Step          Temp          E_pair         E_mol          TotEng         Press          Volume    
     10000   1423.1513     -4526.7946      0             -3791.1516     -106.11968      121160.17    
    100000   1432.6147     -4498.809       0             -3758.2742     -138.05405      123081.08    
Loop time of 793.501 on 1 procs for 90000 steps with 4000 atoms

Performance: 9.800 ns/day, 2.449 hours/ns, 113.421 timesteps/s, 453.686 katom-step/s
99.6% CPU use with 1 MPI tasks x 1 OpenMP threads

MPI task timing breakdown:
Section |  min time  |  avg time  |  max time  |%varavg| %total
---------------------------------------------------------------
Pair    | 759.96     | 759.96     | 759.96     |   0.0 | 95.77
Neigh   | 19.505     | 19.505     | 19.505     |   0.0 |  2.46
Comm    | 2.5581     | 2.5581     | 2.5581     |   0.0 |  0.32
Output  | 0.08804    | 0.08804    | 0.08804    |   0.0 |  0.01
Modify  | 10.261     | 10.261     | 10.261     |   0.0 |  1.29
Other   |            | 1.132      |            |       |  0.14

Nlocal:           4000 ave        4000 max        4000 min
Histogram: 1 0 0 0 0 0 0 0 0 0
Nghost:           6798 ave        6798 max        6798 min
Histogram: 1 0 0 0 0 0 0 0 0 0
Neighs:         233251 ave      233251 max      233251 min
Histogram: 1 0 0 0 0 0 0 0 0 0

Total # of neighbors = 233251
Ave neighs/atom = 58.31275
Neighbor list builds = 2732
Dangerous builds = 0
undump           d1
min_modify       line forcezero
minimize         0 0 100000 100000                                                                               # minimize energy
Per MPI rank memory allocation (min/avg/max) = 5.878 | 5.878 | 5.878 Mbytes
   Step          Temp          E_pair         E_mol          TotEng         Press          Volume    
    100000   1432.6147     -4498.809       0             -3758.2742     -138.05405      123081.08    
    104020   1432.6147     -5590.9658      0             -4850.4311     -2407.2668      123081.08    
Loop time of 60.6027 on 1 procs for 4020 steps with 4000 atoms

99.6% CPU use with 1 MPI tasks x 1 OpenMP threads

Minimization stats:
  Stopping criterion = linesearch alpha is zero
  Energy initial, next-to-last, final = 
     -4498.80897959371  -5590.96582606828  -5590.96582606828
  Force two-norm initial, final = 56.350344 3.9041939e-05
  Force max component initial, final = 2.2940913 1.0820107e-05
  Final line search alpha, max atom move = 0.032847369 3.5541204e-07
  Iterations, force evaluations = 4020 6628

MPI task timing breakdown:
Section |  min time  |  avg time  |  max time  |%varavg| %total
---------------------------------------------------------------
Pair    | 59.216     | 59.216     | 59.216     |   0.0 | 97.71
Neigh   | 0.81574    | 0.81574    | 0.81574    |   0.0 |  1.35
Comm    | 0.18159    | 0.18159    | 0.18159    |   0.0 |  0.30
Output  | 0          | 0          | 0          |   0.0 |  0.00
Modify  | 0          | 0          | 0          |   0.0 |  0.00
Other   |            | 0.3896     |            |       |  0.64

Nlocal:           4000 ave        4000 max        4000 min
Histogram: 1 0 0 0 0 0 0 0 0 0
Nghost:           6881 ave        6881 max        6881 min
Histogram: 1 0 0 0 0 0 0 0 0 0
Neighs:         245544 ave      245544 max      245544 min
Histogram: 1 0 0 0 0 0 0 0 0 0

Total # of neighbors = 245544
Ave neighs/atom = 61.386
Neighbor list builds = 120
Dangerous builds = 0
write_dump       all custom md/data/mg_hcp/dump_1.56_relaxed.gz id type x y z
#------------------------------------------------------------------------------#
Total wall time: 0:15:43
