LAMMPS (29 Aug 2024)
OMP_NUM_THREADS environment is not set. Defaulting to 1 thread. (src/comm.cpp:98)
  using 1 OpenMP thread(s) per MPI task

#---------------------------- Atomic setup ------------------------------------#
units            metal
timestep         0.001
boundary         p p p
lattice          hcp 3.2094
Lattice spacing in x,y,z = 3.2094 5.5588439 5.2409283
region           sim_box block 0 10 0 10 0 10
create_box       1 sim_box
Created orthogonal box = (0 0 0) to (32.094 55.588439 52.409283)
  1 by 1 by 1 MPI processor grid
create_atoms     1 box
Created 4000 atoms
  using lattice units in orthogonal box = (0 0 0) to (32.094 55.588439 52.409283)
  create_atoms CPU = 0.001 seconds

pair_style       eam/fs                                             # interatomic potential (Lennard-Jones, EAM, etc.)
pair_coeff       * * ${potentials_dir}/mg_eam.fs Mg # interatomic potential parameters (ex. eam.alloy Cu_u3.eam)
pair_coeff       * * md/potentials/mg_eam.fs Mg 
pair_modify      tail yes
neigh_modify     delay 0                                                       # neighbor list update frequency (0 = every timestep)
mass             1 24.305                                                 # atomic mass
variable         rnd equal round(random(0,999999,42))

#----------------------------- Equilibriation ---------------------------------#
velocity         all create 812.24 ${rnd} dist gaussian              # initial velocities
velocity         all create 812.24 420940 dist gaussian              
fix              f2 all nph iso 0 0 1.0        # barostat
variable         rnd equal round(random(0,999999,0))
fix              f3 all temp/csvr 812.24 812.24 0.1 ${rnd} # thermostat
fix              f3 all temp/csvr 812.24 812.24 0.1 53464 
run              10000                                           # equilibriation run
Neighbor list info ...
  update: every = 1 steps, delay = 0 steps, check = yes
  max neighbors/atom: 2000, page size: 100000
  master list distance cutoff = 9.5
  ghost atom cutoff = 9.5
  binsize = 4.75, bins = 7 12 12
  1 neighbor lists, perpetual/occasional/extra = 1 0 0
  (1) pair eam/fs, perpetual
      attributes: half, newton on
      pair build: half/bin/atomonly/newton
      stencil: half/bin/3d
      bin: standard
Per MPI rank memory allocation (min/avg/max) = 4.363 | 4.363 | 4.363 Mbytes
   Step          Temp          E_pair         E_mol          TotEng         Press          Volume    
         0   812.24        -6121.5966      0             -5701.7405     -4482.7152      93501.061    
     10000   793.07807     -5632.6479      0             -5222.6969      555.74938      95765.796    
Loop time of 101.168 on 1 procs for 10000 steps with 4000 atoms

Performance: 8.540 ns/day, 2.810 hours/ns, 98.845 timesteps/s, 395.381 katom-step/s
99.6% CPU use with 1 MPI tasks x 1 OpenMP threads

MPI task timing breakdown:
Section |  min time  |  avg time  |  max time  |%varavg| %total
---------------------------------------------------------------
Pair    | 97.928     | 97.928     | 97.928     |   0.0 | 96.80
Neigh   | 1.7212     | 1.7212     | 1.7212     |   0.0 |  1.70
Comm    | 0.29067    | 0.29067    | 0.29067    |   0.0 |  0.29
Output  | 8.5069e-05 | 8.5069e-05 | 8.5069e-05 |   0.0 |  0.00
Modify  | 1.1        | 1.1        | 1.1        |   0.0 |  1.09
Other   |            | 0.1283     |            |       |  0.13

Nlocal:           4000 ave        4000 max        4000 min
Histogram: 1 0 0 0 0 0 0 0 0 0
Nghost:           7383 ave        7383 max        7383 min
Histogram: 1 0 0 0 0 0 0 0 0 0
Neighs:         292191 ave      292191 max      292191 min
Histogram: 1 0 0 0 0 0 0 0 0 0

Total # of neighbors = 292191
Ave neighs/atom = 73.04775
Neighbor list builds = 212
Dangerous builds = 0

#----------------------------- Run simulation ---------------------------------#
dump             d1 all custom 10000 md/data/mg_hcp/dump_0.88.gz id type x y z # snapshots
run              90000
Per MPI rank memory allocation (min/avg/max) = 4.748 | 4.748 | 4.748 Mbytes
   Step          Temp          E_pair         E_mol          TotEng         Press          Volume    
     10000   793.07807     -5632.6479      0             -5222.6969      555.74938      95765.796    
    100000   803.82899     -5620.1018      0             -5204.5935      927.69899      95809.761    
Loop time of 909.726 on 1 procs for 90000 steps with 4000 atoms

Performance: 8.548 ns/day, 2.808 hours/ns, 98.931 timesteps/s, 395.723 katom-step/s
99.6% CPU use with 1 MPI tasks x 1 OpenMP threads

MPI task timing breakdown:
Section |  min time  |  avg time  |  max time  |%varavg| %total
---------------------------------------------------------------
Pair    | 880.32     | 880.32     | 880.32     |   0.0 | 96.77
Neigh   | 15.631     | 15.631     | 15.631     |   0.0 |  1.72
Comm    | 2.5985     | 2.5985     | 2.5985     |   0.0 |  0.29
Output  | 0.08646    | 0.08646    | 0.08646    |   0.0 |  0.01
Modify  | 9.9154     | 9.9154     | 9.9154     |   0.0 |  1.09
Other   |            | 1.177      |            |       |  0.13

Nlocal:           4000 ave        4000 max        4000 min
Histogram: 1 0 0 0 0 0 0 0 0 0
Nghost:           7356 ave        7356 max        7356 min
Histogram: 1 0 0 0 0 0 0 0 0 0
Neighs:         292317 ave      292317 max      292317 min
Histogram: 1 0 0 0 0 0 0 0 0 0

Total # of neighbors = 292317
Ave neighs/atom = 73.07925
Neighbor list builds = 1917
Dangerous builds = 0
undump           d1
min_modify       line forcezero
minimize         0 0 100000 100000                                                                               # minimize energy
Per MPI rank memory allocation (min/avg/max) = 5.873 | 5.873 | 5.873 Mbytes
   Step          Temp          E_pair         E_mol          TotEng         Press          Volume    
    100000   803.82899     -5620.1018      0             -5204.5935      927.69899      95809.761    
    100096   803.82899     -6101.4744      0             -5685.9661     -14064.773      95809.761    
Loop time of 1.61759 on 1 procs for 96 steps with 4000 atoms

99.6% CPU use with 1 MPI tasks x 1 OpenMP threads

Minimization stats:
  Stopping criterion = linesearch alpha is zero
  Energy initial, next-to-last, final = 
     -5620.10183203033  -6101.47438779201  -6101.47438779201
  Force two-norm initial, final = 53.014903 1.6540468e-05
  Force max component initial, final = 1.9844993 6.4869222e-07
  Final line search alpha, max atom move = 4.4645296e-07 2.8961056e-13
  Iterations, force evaluations = 96 179

MPI task timing breakdown:
Section |  min time  |  avg time  |  max time  |%varavg| %total
---------------------------------------------------------------
Pair    | 1.5944     | 1.5944     | 1.5944     |   0.0 | 98.57
Neigh   | 0.0079453  | 0.0079453  | 0.0079453  |   0.0 |  0.49
Comm    | 0.0049788  | 0.0049788  | 0.0049788  |   0.0 |  0.31
Output  | 0          | 0          | 0          |   0.0 |  0.00
Modify  | 0          | 0          | 0          |   0.0 |  0.00
Other   |            | 0.01024    |            |       |  0.63

Nlocal:           4000 ave        4000 max        4000 min
Histogram: 1 0 0 0 0 0 0 0 0 0
Nghost:           7299 ave        7299 max        7299 min
Histogram: 1 0 0 0 0 0 0 0 0 0
Neighs:         292001 ave      292001 max      292001 min
Histogram: 1 0 0 0 0 0 0 0 0 0

Total # of neighbors = 292001
Ave neighs/atom = 73.00025
Neighbor list builds = 1
Dangerous builds = 0
write_dump       all custom md/data/mg_hcp/dump_0.88_relaxed.gz id type x y z
#------------------------------------------------------------------------------#
Total wall time: 0:16:52
