LAMMPS (29 Aug 2024)
OMP_NUM_THREADS environment is not set. Defaulting to 1 thread. (src/comm.cpp:98)
  using 1 OpenMP thread(s) per MPI task
Lattice spacing in x,y,z = 3.2094 5.5588439 5.2409283
Created orthogonal box = (0 0 0) to (32.094 55.588439 52.409283)
  1 by 1 by 1 MPI processor grid
Created 4000 atoms
  using lattice units in orthogonal box = (0 0 0) to (32.094 55.588439 52.409283)
  create_atoms CPU = 0.001 seconds
Neighbor list info ...
  update: every = 1 steps, delay = 0 steps, check = yes
  max neighbors/atom: 2000, page size: 100000
  master list distance cutoff = 9.5
  ghost atom cutoff = 9.5
  binsize = 4.75, bins = 7 12 12
  1 neighbor lists, perpetual/occasional/extra = 1 0 0
  (1) pair eam/fs, perpetual
      attributes: half, newton on
      pair build: half/bin/atomonly/newton
      stencil: half/bin/3d
      bin: standard
Setting up Verlet run ...
  Unit style    : metal
  Current step  : 0
  Time step     : 0.001
Per MPI rank memory allocation (min/avg/max) = 4.363 | 4.363 | 4.363 Mbytes
   Step          Temp          E_pair         E_mol          TotEng         Press          Volume    
         0   664.56        -6121.5966      0             -5778.078      -5354.763       93501.061    
     10000   646.57365     -5735.9742      0             -5401.753      -1409.5323      95262.291    
Loop time of 100.99 on 1 procs for 10000 steps with 4000 atoms

Performance: 8.555 ns/day, 2.805 hours/ns, 99.019 timesteps/s, 396.077 katom-step/s
99.6% CPU use with 1 MPI tasks x 1 OpenMP threads

MPI task timing breakdown:
Section |  min time  |  avg time  |  max time  |%varavg| %total
---------------------------------------------------------------
Pair    | 97.986     | 97.986     | 97.986     |   0.0 | 97.02
Neigh   | 1.4938     | 1.4938     | 1.4938     |   0.0 |  1.48
Comm    | 0.29168    | 0.29168    | 0.29168    |   0.0 |  0.29
Output  | 8.7534e-05 | 8.7534e-05 | 8.7534e-05 |   0.0 |  0.00
Modify  | 1.0973     | 1.0973     | 1.0973     |   0.0 |  1.09
Other   |            | 0.1219     |            |       |  0.12

Nlocal:           4000 ave        4000 max        4000 min
Histogram: 1 0 0 0 0 0 0 0 0 0
Nghost:           7395 ave        7395 max        7395 min
Histogram: 1 0 0 0 0 0 0 0 0 0
Neighs:         292226 ave      292226 max      292226 min
Histogram: 1 0 0 0 0 0 0 0 0 0

Total # of neighbors = 292226
Ave neighs/atom = 73.0565
Neighbor list builds = 185
Dangerous builds = 0
Setting up Verlet run ...
  Unit style    : metal
  Current step  : 10000
  Time step     : 0.001
Per MPI rank memory allocation (min/avg/max) = 4.748 | 4.748 | 4.748 Mbytes
   Step          Temp          E_pair         E_mol          TotEng         Press          Volume    
     10000   646.57365     -5735.9742      0             -5401.753      -1409.5323      95262.291    
    100000   663.57563     -5731.5313      0             -5388.5216     -180.53817      94999.643    
Loop time of 910.074 on 1 procs for 90000 steps with 4000 atoms

Performance: 8.544 ns/day, 2.809 hours/ns, 98.893 timesteps/s, 395.572 katom-step/s
99.6% CPU use with 1 MPI tasks x 1 OpenMP threads

MPI task timing breakdown:
Section |  min time  |  avg time  |  max time  |%varavg| %total
---------------------------------------------------------------
Pair    | 882.68     | 882.68     | 882.68     |   0.0 | 96.99
Neigh   | 13.594     | 13.594     | 13.594     |   0.0 |  1.49
Comm    | 2.6213     | 2.6213     | 2.6213     |   0.0 |  0.29
Output  | 0.084986   | 0.084986   | 0.084986   |   0.0 |  0.01
Modify  | 9.9469     | 9.9469     | 9.9469     |   0.0 |  1.09
Other   |            | 1.15       |            |       |  0.13

Nlocal:           4000 ave        4000 max        4000 min
Histogram: 1 0 0 0 0 0 0 0 0 0
Nghost:           7386 ave        7386 max        7386 min
Histogram: 1 0 0 0 0 0 0 0 0 0
Neighs:         292924 ave      292924 max      292924 min
Histogram: 1 0 0 0 0 0 0 0 0 0

Total # of neighbors = 292924
Ave neighs/atom = 73.231
Neighbor list builds = 1674
Dangerous builds = 0
Setting up cg style minimization ...
  Unit style    : metal
  Current step  : 100000
Per MPI rank memory allocation (min/avg/max) = 5.876 | 5.876 | 5.876 Mbytes
   Step          Temp          E_pair         E_mol          TotEng         Press          Volume    
    100000   663.57563     -5731.5313      0             -5388.5216     -180.53817      94999.643    
    100096   663.57563     -6110.0838      0             -5767.0741     -11504.415      94999.643    
Loop time of 1.64766 on 1 procs for 96 steps with 4000 atoms

99.7% CPU use with 1 MPI tasks x 1 OpenMP threads

Minimization stats:
  Stopping criterion = linesearch alpha is zero
  Energy initial, next-to-last, final = 
     -5731.53134356559  -6110.08381431905  -6110.08381431905
  Force two-norm initial, final = 48.649127 1.6454941e-05
  Force max component initial, final = 1.8915675 5.8439736e-07
  Final line search alpha, max atom move = 0.020412203 1.1928838e-08
  Iterations, force evaluations = 96 184

MPI task timing breakdown:
Section |  min time  |  avg time  |  max time  |%varavg| %total
---------------------------------------------------------------
Pair    | 1.6251     | 1.6251     | 1.6251     |   0.0 | 98.63
Neigh   | 0.0077559  | 0.0077559  | 0.0077559  |   0.0 |  0.47
Comm    | 0.0050142  | 0.0050142  | 0.0050142  |   0.0 |  0.30
Output  | 0          | 0          | 0          |   0.0 |  0.00
Modify  | 0          | 0          | 0          |   0.0 |  0.00
Other   |            | 0.009805   |            |       |  0.60

Nlocal:           4000 ave        4000 max        4000 min
Histogram: 1 0 0 0 0 0 0 0 0 0
Nghost:           7299 ave        7299 max        7299 min
Histogram: 1 0 0 0 0 0 0 0 0 0
Neighs:         292000 ave      292000 max      292000 min
Histogram: 1 0 0 0 0 0 0 0 0 0

Total # of neighbors = 292000
Ave neighs/atom = 73
Neighbor list builds = 1
Dangerous builds = 0
Total wall time: 0:16:52
