LAMMPS (29 Aug 2024)
OMP_NUM_THREADS environment is not set. Defaulting to 1 thread. (src/comm.cpp:98)
  using 1 OpenMP thread(s) per MPI task

#---------------------------- Atomic setup ------------------------------------#
units            metal
timestep         0.001
boundary         p p p
lattice          hcp 3.2094
Lattice spacing in x,y,z = 3.2094 5.5588439 5.2409283
region           sim_box block 0 10 0 10 0 10
create_box       1 sim_box
Created orthogonal box = (0 0 0) to (32.094 55.588439 52.409283)
  1 by 1 by 1 MPI processor grid
create_atoms     1 box
Created 4000 atoms
  using lattice units in orthogonal box = (0 0 0) to (32.094 55.588439 52.409283)
  create_atoms CPU = 0.001 seconds

pair_style       eam/fs                                             # interatomic potential (Lennard-Jones, EAM, etc.)
pair_coeff       * * ${potentials_dir}/mg_eam.fs Mg # interatomic potential parameters (ex. eam.alloy Cu_u3.eam)
pair_coeff       * * md/potentials/mg_eam.fs Mg 
pair_modify      tail yes
neigh_modify     delay 0                                                       # neighbor list update frequency (0 = every timestep)
mass             1 24.305                                                 # atomic mass
variable         rnd equal round(random(0,999999,42))

#----------------------------- Equilibriation ---------------------------------#
velocity         all create 1402.96 ${rnd} dist gaussian              # initial velocities
velocity         all create 1402.96 420940 dist gaussian              
fix              f2 all nph iso 0 0 1.0        # barostat
variable         rnd equal round(random(0,999999,0))
fix              f3 all temp/csvr 1402.96 1402.96 0.1 ${rnd} # thermostat
fix              f3 all temp/csvr 1402.96 1402.96 0.1 53464 
run              10000                                           # equilibriation run
Neighbor list info ...
  update: every = 1 steps, delay = 0 steps, check = yes
  max neighbors/atom: 2000, page size: 100000
  master list distance cutoff = 9.5
  ghost atom cutoff = 9.5
  binsize = 4.75, bins = 7 12 12
  1 neighbor lists, perpetual/occasional/extra = 1 0 0
  (1) pair eam/fs, perpetual
      attributes: half, newton on
      pair build: half/bin/atomonly/newton
      stencil: half/bin/3d
      bin: standard
Per MPI rank memory allocation (min/avg/max) = 4.363 | 4.363 | 4.363 Mbytes
   Step          Temp          E_pair         E_mol          TotEng         Press          Volume    
         0   1402.96       -6121.5966      0             -5396.3907     -994.52405      93501.061    
     10000   1366.3713     -4570.2522      0             -3863.9593     -586.1619       118698.67    
Loop time of 90.641 on 1 procs for 10000 steps with 4000 atoms

Performance: 9.532 ns/day, 2.518 hours/ns, 110.325 timesteps/s, 441.301 katom-step/s
99.6% CPU use with 1 MPI tasks x 1 OpenMP threads

MPI task timing breakdown:
Section |  min time  |  avg time  |  max time  |%varavg| %total
---------------------------------------------------------------
Pair    | 86.931     | 86.931     | 86.931     |   0.0 | 95.91
Neigh   | 2.2018     | 2.2018     | 2.2018     |   0.0 |  2.43
Comm    | 0.28427    | 0.28427    | 0.28427    |   0.0 |  0.31
Output  | 7.9159e-05 | 7.9159e-05 | 7.9159e-05 |   0.0 |  0.00
Modify  | 1.1011     | 1.1011     | 1.1011     |   0.0 |  1.21
Other   |            | 0.1224     |            |       |  0.13

Nlocal:           4000 ave        4000 max        4000 min
Histogram: 1 0 0 0 0 0 0 0 0 0
Nghost:           6912 ave        6912 max        6912 min
Histogram: 1 0 0 0 0 0 0 0 0 0
Neighs:         241660 ave      241660 max      241660 min
Histogram: 1 0 0 0 0 0 0 0 0 0

Total # of neighbors = 241660
Ave neighs/atom = 60.415
Neighbor list builds = 298
Dangerous builds = 0

#----------------------------- Run simulation ---------------------------------#
dump             d1 all custom 10000 md/data/mg_hcp/dump_1.52.gz id type x y z # snapshots
run              90000
Per MPI rank memory allocation (min/avg/max) = 4.751 | 4.751 | 4.751 Mbytes
   Step          Temp          E_pair         E_mol          TotEng         Press          Volume    
     10000   1366.3713     -4570.2522      0             -3863.9593     -586.1619       118698.67    
    100000   1400.0408     -4560.6719      0             -3836.975      -167.38946      119581.32    
Loop time of 801.107 on 1 procs for 90000 steps with 4000 atoms

Performance: 9.707 ns/day, 2.473 hours/ns, 112.345 timesteps/s, 449.378 katom-step/s
99.6% CPU use with 1 MPI tasks x 1 OpenMP threads

MPI task timing breakdown:
Section |  min time  |  avg time  |  max time  |%varavg| %total
---------------------------------------------------------------
Pair    | 767.73     | 767.73     | 767.73     |   0.0 | 95.83
Neigh   | 19.696     | 19.696     | 19.696     |   0.0 |  2.46
Comm    | 2.5127     | 2.5127     | 2.5127     |   0.0 |  0.31
Output  | 0.088005   | 0.088005   | 0.088005   |   0.0 |  0.01
Modify  | 9.9375     | 9.9375     | 9.9375     |   0.0 |  1.24
Other   |            | 1.142      |            |       |  0.14

Nlocal:           4000 ave        4000 max        4000 min
Histogram: 1 0 0 0 0 0 0 0 0 0
Nghost:           6864 ave        6864 max        6864 min
Histogram: 1 0 0 0 0 0 0 0 0 0
Neighs:         239708 ave      239708 max      239708 min
Histogram: 1 0 0 0 0 0 0 0 0 0

Total # of neighbors = 239708
Ave neighs/atom = 59.927
Neighbor list builds = 2696
Dangerous builds = 0
undump           d1
min_modify       line forcezero
minimize         0 0 100000 100000                                                                               # minimize energy
Per MPI rank memory allocation (min/avg/max) = 5.878 | 5.878 | 5.878 Mbytes
   Step          Temp          E_pair         E_mol          TotEng         Press          Volume    
    100000   1400.0408     -4560.6719      0             -3836.975      -167.38946      119581.32    
    103621   1400.0408     -5625.7019      0             -4902.0049     -2732.7351      119581.32    
Loop time of 54.972 on 1 procs for 3621 steps with 4000 atoms

99.6% CPU use with 1 MPI tasks x 1 OpenMP threads

Minimization stats:
  Stopping criterion = linesearch alpha is zero
  Energy initial, next-to-last, final = 
     -4560.67192718322  -5625.70185101122  -5625.70185101122
  Force two-norm initial, final = 56.225765 3.2740989e-05
  Force max component initial, final = 2.1051346 8.1459743e-06
  Final line search alpha, max atom move = 0 0
  Iterations, force evaluations = 3621 5861

MPI task timing breakdown:
Section |  min time  |  avg time  |  max time  |%varavg| %total
---------------------------------------------------------------
Pair    | 53.76      | 53.76      | 53.76      |   0.0 | 97.80
Neigh   | 0.70462    | 0.70462    | 0.70462    |   0.0 |  1.28
Comm    | 0.15895    | 0.15895    | 0.15895    |   0.0 |  0.29
Output  | 0          | 0          | 0          |   0.0 |  0.00
Modify  | 0          | 0          | 0          |   0.0 |  0.00
Other   |            | 0.3485     |            |       |  0.63

Nlocal:           4000 ave        4000 max        4000 min
Histogram: 1 0 0 0 0 0 0 0 0 0
Nghost:           6948 ave        6948 max        6948 min
Histogram: 1 0 0 0 0 0 0 0 0 0
Neighs:         253148 ave      253148 max      253148 min
Histogram: 1 0 0 0 0 0 0 0 0 0

Total # of neighbors = 253148
Ave neighs/atom = 63.287
Neighbor list builds = 100
Dangerous builds = 0
write_dump       all custom md/data/mg_hcp/dump_1.52_relaxed.gz id type x y z
#------------------------------------------------------------------------------#
Total wall time: 0:15:46
