LAMMPS (29 Aug 2024)
OMP_NUM_THREADS environment is not set. Defaulting to 1 thread. (src/comm.cpp:98)
  using 1 OpenMP thread(s) per MPI task

#---------------------------- Atomic setup ------------------------------------#
units            metal
timestep         0.001
boundary         p p p
lattice          hcp 3.2094
Lattice spacing in x,y,z = 3.2094 5.5588439 5.2409283
region           sim_box block 0 10 0 10 0 10
create_box       1 sim_box
Created orthogonal box = (0 0 0) to (32.094 55.588439 52.409283)
  1 by 1 by 1 MPI processor grid
create_atoms     1 box
Created 4000 atoms
  using lattice units in orthogonal box = (0 0 0) to (32.094 55.588439 52.409283)
  create_atoms CPU = 0.001 seconds

pair_style       eam/fs                                             # interatomic potential (Lennard-Jones, EAM, etc.)
pair_coeff       * * ${potentials_dir}/mg_eam.fs Mg # interatomic potential parameters (ex. eam.alloy Cu_u3.eam)
pair_coeff       * * md/potentials/mg_eam.fs Mg 
pair_modify      tail yes
neigh_modify     delay 0                                                       # neighbor list update frequency (0 = every timestep)
mass             1 24.305                                                 # atomic mass
variable         rnd equal round(random(0,999999,42))

#----------------------------- Equilibriation ---------------------------------#
velocity         all create 886.0799999999999 ${rnd} dist gaussian              # initial velocities
velocity         all create 886.0799999999999 420940 dist gaussian              
fix              f2 all nph iso 0 0 1.0        # barostat
variable         rnd equal round(random(0,999999,0))
fix              f3 all temp/csvr 886.0799999999999 886.0799999999999 0.1 ${rnd} # thermostat
fix              f3 all temp/csvr 886.0799999999999 886.0799999999999 0.1 53464 
run              10000                                           # equilibriation run
Neighbor list info ...
  update: every = 1 steps, delay = 0 steps, check = yes
  max neighbors/atom: 2000, page size: 100000
  master list distance cutoff = 9.5
  ghost atom cutoff = 9.5
  binsize = 4.75, bins = 7 12 12
  1 neighbor lists, perpetual/occasional/extra = 1 0 0
  (1) pair eam/fs, perpetual
      attributes: half, newton on
      pair build: half/bin/atomonly/newton
      stencil: half/bin/3d
      bin: standard
Per MPI rank memory allocation (min/avg/max) = 4.363 | 4.363 | 4.363 Mbytes
   Step          Temp          E_pair         E_mol          TotEng         Press          Volume    
         0   886.08        -6121.5966      0             -5663.5718     -4046.6913      93501.061    
     10000   870.87446     -5576.7803      0             -5126.6154      907.58119      96320.508    
Loop time of 100.598 on 1 procs for 10000 steps with 4000 atoms

Performance: 8.589 ns/day, 2.794 hours/ns, 99.405 timesteps/s, 397.621 katom-step/s
99.6% CPU use with 1 MPI tasks x 1 OpenMP threads

MPI task timing breakdown:
Section |  min time  |  avg time  |  max time  |%varavg| %total
---------------------------------------------------------------
Pair    | 97.272     | 97.272     | 97.272     |   0.0 | 96.69
Neigh   | 1.8056     | 1.8056     | 1.8056     |   0.0 |  1.79
Comm    | 0.29077    | 0.29077    | 0.29077    |   0.0 |  0.29
Output  | 8.8306e-05 | 8.8306e-05 | 8.8306e-05 |   0.0 |  0.00
Modify  | 1.1033     | 1.1033     | 1.1033     |   0.0 |  1.10
Other   |            | 0.127      |            |       |  0.13

Nlocal:           4000 ave        4000 max        4000 min
Histogram: 1 0 0 0 0 0 0 0 0 0
Nghost:           7368 ave        7368 max        7368 min
Histogram: 1 0 0 0 0 0 0 0 0 0
Neighs:         291617 ave      291617 max      291617 min
Histogram: 1 0 0 0 0 0 0 0 0 0

Total # of neighbors = 291617
Ave neighs/atom = 72.90425
Neighbor list builds = 222
Dangerous builds = 0

#----------------------------- Run simulation ---------------------------------#
dump             d1 all custom 10000 md/data/mg_hcp/dump_0.96.gz id type x y z # snapshots
run              90000
Per MPI rank memory allocation (min/avg/max) = 4.748 | 4.748 | 4.748 Mbytes
   Step          Temp          E_pair         E_mol          TotEng         Press          Volume    
     10000   870.87446     -5576.7803      0             -5126.6154      907.58119      96320.508    
    100000   895.44128     -5574.0938      0             -5111.23        41.704405      96631.479    
Loop time of 913.31 on 1 procs for 90000 steps with 4000 atoms

Performance: 8.514 ns/day, 2.819 hours/ns, 98.543 timesteps/s, 394.171 katom-step/s
99.6% CPU use with 1 MPI tasks x 1 OpenMP threads

MPI task timing breakdown:
Section |  min time  |  avg time  |  max time  |%varavg| %total
---------------------------------------------------------------
Pair    | 883.1      | 883.1      | 883.1      |   0.0 | 96.69
Neigh   | 16.542     | 16.542     | 16.542     |   0.0 |  1.81
Comm    | 2.6101     | 2.6101     | 2.6101     |   0.0 |  0.29
Output  | 0.085825   | 0.085825   | 0.085825   |   0.0 |  0.01
Modify  | 9.8716     | 9.8716     | 9.8716     |   0.0 |  1.08
Other   |            | 1.104      |            |       |  0.12

Nlocal:           4000 ave        4000 max        4000 min
Histogram: 1 0 0 0 0 0 0 0 0 0
Nghost:           7402 ave        7402 max        7402 min
Histogram: 1 0 0 0 0 0 0 0 0 0
Neighs:         291311 ave      291311 max      291311 min
Histogram: 1 0 0 0 0 0 0 0 0 0

Total # of neighbors = 291311
Ave neighs/atom = 72.82775
Neighbor list builds = 2026
Dangerous builds = 0
undump           d1
min_modify       line forcezero
minimize         0 0 100000 100000                                                                               # minimize energy
Per MPI rank memory allocation (min/avg/max) = 5.876 | 5.876 | 5.876 Mbytes
   Step          Temp          E_pair         E_mol          TotEng         Press          Volume    
    100000   895.44128     -5574.0938      0             -5111.23        41.704405      96631.479    
    100096   895.44128     -6091.0133      0             -5628.1496     -16982.018      96631.479    
Loop time of 1.62046 on 1 procs for 96 steps with 4000 atoms

99.8% CPU use with 1 MPI tasks x 1 OpenMP threads

Minimization stats:
  Stopping criterion = linesearch alpha is zero
  Energy initial, next-to-last, final = 
     -5574.09375931381  -6091.01332231657  -6091.01332231657
  Force two-norm initial, final = 54.557005 2.011881e-05
  Force max component initial, final = 2.1138097 8.4433269e-07
  Final line search alpha, max atom move = 0.066542311 5.6183848e-08
  Iterations, force evaluations = 96 179

MPI task timing breakdown:
Section |  min time  |  avg time  |  max time  |%varavg| %total
---------------------------------------------------------------
Pair    | 1.5983     | 1.5983     | 1.5983     |   0.0 | 98.63
Neigh   | 0.0078345  | 0.0078345  | 0.0078345  |   0.0 |  0.48
Comm    | 0.0047731  | 0.0047731  | 0.0047731  |   0.0 |  0.29
Output  | 0          | 0          | 0          |   0.0 |  0.00
Modify  | 0          | 0          | 0          |   0.0 |  0.00
Other   |            | 0.00952    |            |       |  0.59

Nlocal:           4000 ave        4000 max        4000 min
Histogram: 1 0 0 0 0 0 0 0 0 0
Nghost:           7280 ave        7280 max        7280 min
Histogram: 1 0 0 0 0 0 0 0 0 0
Neighs:         291662 ave      291662 max      291662 min
Histogram: 1 0 0 0 0 0 0 0 0 0

Total # of neighbors = 291662
Ave neighs/atom = 72.9155
Neighbor list builds = 1
Dangerous builds = 0
write_dump       all custom md/data/mg_hcp/dump_0.96_relaxed.gz id type x y z
#------------------------------------------------------------------------------#
Total wall time: 0:16:55
