LAMMPS (29 Aug 2024)
OMP_NUM_THREADS environment is not set. Defaulting to 1 thread. (src/comm.cpp:98)
  using 1 OpenMP thread(s) per MPI task
Lattice spacing in x,y,z = 3.2094 5.5588439 5.2409283
Created orthogonal box = (0 0 0) to (32.094 55.588439 52.409283)
  1 by 1 by 1 MPI processor grid
Created 4000 atoms
  using lattice units in orthogonal box = (0 0 0) to (32.094 55.588439 52.409283)
  create_atoms CPU = 0.001 seconds
Neighbor list info ...
  update: every = 1 steps, delay = 0 steps, check = yes
  max neighbors/atom: 2000, page size: 100000
  master list distance cutoff = 9.5
  ghost atom cutoff = 9.5
  binsize = 4.75, bins = 7 12 12
  1 neighbor lists, perpetual/occasional/extra = 1 0 0
  (1) pair eam/fs, perpetual
      attributes: half, newton on
      pair build: half/bin/atomonly/newton
      stencil: half/bin/3d
      bin: standard
Setting up Verlet run ...
  Unit style    : metal
  Current step  : 0
  Time step     : 0.001
Per MPI rank memory allocation (min/avg/max) = 4.363 | 4.363 | 4.363 Mbytes
   Step          Temp          E_pair         E_mol          TotEng         Press          Volume    
         0   1033.76       -6121.5966      0             -5587.2343     -3174.6435      93501.061    
     10000   1020.7022     -5442.4422      0             -4914.8297     -69.356602      98152.743    
Loop time of 100.333 on 1 procs for 10000 steps with 4000 atoms

Performance: 8.611 ns/day, 2.787 hours/ns, 99.668 timesteps/s, 398.672 katom-step/s
99.4% CPU use with 1 MPI tasks x 1 OpenMP threads

MPI task timing breakdown:
Section |  min time  |  avg time  |  max time  |%varavg| %total
---------------------------------------------------------------
Pair    | 96.695     | 96.695     | 96.695     |   0.0 | 96.37
Neigh   | 2.0153     | 2.0153     | 2.0153     |   0.0 |  2.01
Comm    | 0.29285    | 0.29285    | 0.29285    |   0.0 |  0.29
Output  | 9.0971e-05 | 9.0971e-05 | 9.0971e-05 |   0.0 |  0.00
Modify  | 1.2006     | 1.2006     | 1.2006     |   0.0 |  1.20
Other   |            | 0.1288     |            |       |  0.13

Nlocal:           4000 ave        4000 max        4000 min
Histogram: 1 0 0 0 0 0 0 0 0 0
Nghost:           7360 ave        7360 max        7360 min
Histogram: 1 0 0 0 0 0 0 0 0 0
Neighs:         288667 ave      288667 max      288667 min
Histogram: 1 0 0 0 0 0 0 0 0 0

Total # of neighbors = 288667
Ave neighs/atom = 72.16675
Neighbor list builds = 247
Dangerous builds = 0
Setting up Verlet run ...
  Unit style    : metal
  Current step  : 10000
  Time step     : 0.001
Per MPI rank memory allocation (min/avg/max) = 4.751 | 4.751 | 4.751 Mbytes
   Step          Temp          E_pair         E_mol          TotEng         Press          Volume    
     10000   1020.7022     -5442.4422      0             -4914.8297     -69.356602      98152.743    
    100000   1033.7181     -5422.4784      0             -4888.1378     -297.82797      98498.562    
Loop time of 866.529 on 1 procs for 90000 steps with 4000 atoms

Performance: 8.974 ns/day, 2.674 hours/ns, 103.863 timesteps/s, 415.451 katom-step/s
99.5% CPU use with 1 MPI tasks x 1 OpenMP threads

MPI task timing breakdown:
Section |  min time  |  avg time  |  max time  |%varavg| %total
---------------------------------------------------------------
Pair    | 833.59     | 833.59     | 833.59     |   0.0 | 96.20
Neigh   | 18.235     | 18.235     | 18.235     |   0.0 |  2.10
Comm    | 2.6288     | 2.6288     | 2.6288     |   0.0 |  0.30
Output  | 0.084846   | 0.084846   | 0.084846   |   0.0 |  0.01
Modify  | 10.749     | 10.749     | 10.749     |   0.0 |  1.24
Other   |            | 1.241      |            |       |  0.14

Nlocal:           4000 ave        4000 max        4000 min
Histogram: 1 0 0 0 0 0 0 0 0 0
Nghost:           7298 ave        7298 max        7298 min
Histogram: 1 0 0 0 0 0 0 0 0 0
Neighs:         288192 ave      288192 max      288192 min
Histogram: 1 0 0 0 0 0 0 0 0 0

Total # of neighbors = 288192
Ave neighs/atom = 72.048
Neighbor list builds = 2231
Dangerous builds = 0
Setting up cg style minimization ...
  Unit style    : metal
  Current step  : 100000
Per MPI rank memory allocation (min/avg/max) = 5.876 | 5.876 | 5.876 Mbytes
   Step          Temp          E_pair         E_mol          TotEng         Press          Volume    
    100000   1033.7181     -5422.4784      0             -4888.1378     -297.82797      98498.562    
    100119   1033.7181     -6058.4381      0             -5524.0975     -23845.758      98498.562    
Loop time of 1.78588 on 1 procs for 119 steps with 4000 atoms

99.5% CPU use with 1 MPI tasks x 1 OpenMP threads

Minimization stats:
  Stopping criterion = linesearch alpha is zero
  Energy initial, next-to-last, final = 
      -5422.4783886819  -6058.43807876382  -6058.43807876382
  Force two-norm initial, final = 57.158469 3.2626697e-05
  Force max component initial, final = 2.3255719 8.3722171e-06
  Final line search alpha, max atom move = 0.0042141503 3.5281781e-08
  Iterations, force evaluations = 119 197

MPI task timing breakdown:
Section |  min time  |  avg time  |  max time  |%varavg| %total
---------------------------------------------------------------
Pair    | 1.7526     | 1.7526     | 1.7526     |   0.0 | 98.13
Neigh   | 0.015922   | 0.015922   | 0.015922   |   0.0 |  0.89
Comm    | 0.005593   | 0.005593   | 0.005593   |   0.0 |  0.31
Output  | 0          | 0          | 0          |   0.0 |  0.00
Modify  | 0          | 0          | 0          |   0.0 |  0.00
Other   |            | 0.01179    |            |       |  0.66

Nlocal:           4000 ave        4000 max        4000 min
Histogram: 1 0 0 0 0 0 0 0 0 0
Nghost:           7272 ave        7272 max        7272 min
Histogram: 1 0 0 0 0 0 0 0 0 0
Neighs:         290433 ave      290433 max      290433 min
Histogram: 1 0 0 0 0 0 0 0 0 0

Total # of neighbors = 290433
Ave neighs/atom = 72.60825
Neighbor list builds = 2
Dangerous builds = 0
Total wall time: 0:16:08
