LAMMPS (29 Aug 2024)
OMP_NUM_THREADS environment is not set. Defaulting to 1 thread. (src/comm.cpp:98)
  using 1 OpenMP thread(s) per MPI task

#---------------------------- Atomic setup ------------------------------------#
units            metal
timestep         0.001
boundary         p p p
lattice          hcp 3.2094
Lattice spacing in x,y,z = 3.2094 5.5588439 5.2409283
region           sim_box block 0 10 0 10 0 10
create_box       1 sim_box
Created orthogonal box = (0 0 0) to (32.094 55.588439 52.409283)
  1 by 1 by 1 MPI processor grid
create_atoms     1 box
Created 4000 atoms
  using lattice units in orthogonal box = (0 0 0) to (32.094 55.588439 52.409283)
  create_atoms CPU = 0.001 seconds

pair_style       eam/fs                                             # interatomic potential (Lennard-Jones, EAM, etc.)
pair_coeff       * * ${potentials_dir}/mg_eam.fs Mg # interatomic potential parameters (ex. eam.alloy Cu_u3.eam)
pair_coeff       * * md/potentials/mg_eam.fs Mg 
pair_modify      tail yes
neigh_modify     delay 0                                                       # neighbor list update frequency (0 = every timestep)
mass             1 24.305                                                 # atomic mass
variable         rnd equal round(random(0,999999,42))

#----------------------------- Equilibriation ---------------------------------#
velocity         all create 221.51999999999998 ${rnd} dist gaussian              # initial velocities
velocity         all create 221.51999999999998 420940 dist gaussian              
fix              f2 all nph iso 0 0 1.0        # barostat
variable         rnd equal round(random(0,999999,0))
fix              f3 all temp/csvr 221.51999999999998 221.51999999999998 0.1 ${rnd} # thermostat
fix              f3 all temp/csvr 221.51999999999998 221.51999999999998 0.1 53464 
run              10000                                           # equilibriation run
Neighbor list info ...
  update: every = 1 steps, delay = 0 steps, check = yes
  max neighbors/atom: 2000, page size: 100000
  master list distance cutoff = 9.5
  ghost atom cutoff = 9.5
  binsize = 4.75, bins = 7 12 12
  1 neighbor lists, perpetual/occasional/extra = 1 0 0
  (1) pair eam/fs, perpetual
      attributes: half, newton on
      pair build: half/bin/atomonly/newton
      stencil: half/bin/3d
      bin: standard
Per MPI rank memory allocation (min/avg/max) = 4.363 | 4.363 | 4.363 Mbytes
   Step          Temp          E_pair         E_mol          TotEng         Press          Volume    
         0   221.52        -6121.5966      0             -6007.0904     -7970.9064      93501.061    
     10000   213.91524     -6007.6052      0             -5897.03       -623.26515      92430.984    
Loop time of 100.083 on 1 procs for 10000 steps with 4000 atoms

Performance: 8.633 ns/day, 2.780 hours/ns, 99.917 timesteps/s, 399.667 katom-step/s
99.5% CPU use with 1 MPI tasks x 1 OpenMP threads

MPI task timing breakdown:
Section |  min time  |  avg time  |  max time  |%varavg| %total
---------------------------------------------------------------
Pair    | 98.582     | 98.582     | 98.582     |   0.0 | 98.50
Neigh   | 0.017739   | 0.017739   | 0.017739   |   0.0 |  0.02
Comm    | 0.2698     | 0.2698     | 0.2698     |   0.0 |  0.27
Output  | 0.00022418 | 0.00022418 | 0.00022418 |   0.0 |  0.00
Modify  | 1.0957     | 1.0957     | 1.0957     |   0.0 |  1.09
Other   |            | 0.1182     |            |       |  0.12

Nlocal:           4000 ave        4000 max        4000 min
Histogram: 1 0 0 0 0 0 0 0 0 0
Nghost:           7455 ave        7455 max        7455 min
Histogram: 1 0 0 0 0 0 0 0 0 0
Neighs:         297257 ave      297257 max      297257 min
Histogram: 1 0 0 0 0 0 0 0 0 0

Total # of neighbors = 297257
Ave neighs/atom = 74.31425
Neighbor list builds = 2
Dangerous builds = 0

#----------------------------- Run simulation ---------------------------------#
dump             d1 all custom 10000 md/data/mg_hcp/dump_0.24.gz id type x y z # snapshots
run              90000
Per MPI rank memory allocation (min/avg/max) = 4.749 | 4.749 | 4.749 Mbytes
   Step          Temp          E_pair         E_mol          TotEng         Press          Volume    
     10000   213.91524     -6007.6052      0             -5897.03       -623.26515      92430.984    
    100000   220.66526     -6007.3976      0             -5893.3333      62.592832      92265.423    
Loop time of 893.223 on 1 procs for 90000 steps with 4000 atoms

Performance: 8.706 ns/day, 2.757 hours/ns, 100.759 timesteps/s, 403.035 katom-step/s
99.6% CPU use with 1 MPI tasks x 1 OpenMP threads

MPI task timing breakdown:
Section |  min time  |  avg time  |  max time  |%varavg| %total
---------------------------------------------------------------
Pair    | 879.52     | 879.52     | 879.52     |   0.0 | 98.47
Neigh   | 0          | 0          | 0          |   0.0 |  0.00
Comm    | 2.4238     | 2.4238     | 2.4238     |   0.0 |  0.27
Output  | 0.13503    | 0.13503    | 0.13503    |   0.0 |  0.02
Modify  | 10.056     | 10.056     | 10.056     |   0.0 |  1.13
Other   |            | 1.086      |            |       |  0.12

Nlocal:           4000 ave        4000 max        4000 min
Histogram: 1 0 0 0 0 0 0 0 0 0
Nghost:           7406 ave        7406 max        7406 min
Histogram: 1 0 0 0 0 0 0 0 0 0
Neighs:         297328 ave      297328 max      297328 min
Histogram: 1 0 0 0 0 0 0 0 0 0

Total # of neighbors = 297328
Ave neighs/atom = 74.332
Neighbor list builds = 0
Dangerous builds = 0
undump           d1
min_modify       line forcezero
minimize         0 0 100000 100000                                                                               # minimize energy
Per MPI rank memory allocation (min/avg/max) = 5.874 | 5.874 | 5.874 Mbytes
   Step          Temp          E_pair         E_mol          TotEng         Press          Volume    
    100000   220.66526     -6007.3976      0             -5893.3333      62.592832      92265.423    
    100099   220.66526     -6126.8548      0             -6012.7904     -3053.0672      92265.423    
Loop time of 1.85821 on 1 procs for 99 steps with 4000 atoms

99.6% CPU use with 1 MPI tasks x 1 OpenMP threads

Minimization stats:
  Stopping criterion = linesearch alpha is zero
  Energy initial, next-to-last, final = 
     -6007.39763231819  -6126.85479249816  -6126.85479249816
  Force two-norm initial, final = 29.849377 2.2395888e-05
  Force max component initial, final = 1.1418074 8.7403186e-07
  Final line search alpha, max atom move = 4.2271444e-06 3.6946589e-12
  Iterations, force evaluations = 99 202

MPI task timing breakdown:
Section |  min time  |  avg time  |  max time  |%varavg| %total
---------------------------------------------------------------
Pair    | 1.8415     | 1.8415     | 1.8415     |   0.0 | 99.10
Neigh   | 0          | 0          | 0          |   0.0 |  0.00
Comm    | 0.0056117  | 0.0056117  | 0.0056117  |   0.0 |  0.30
Output  | 0          | 0          | 0          |   0.0 |  0.00
Modify  | 0          | 0          | 0          |   0.0 |  0.00
Other   |            | 0.0111     |            |       |  0.60

Nlocal:           4000 ave        4000 max        4000 min
Histogram: 1 0 0 0 0 0 0 0 0 0
Nghost:           7462 ave        7462 max        7462 min
Histogram: 1 0 0 0 0 0 0 0 0 0
Neighs:         297733 ave      297733 max      297733 min
Histogram: 1 0 0 0 0 0 0 0 0 0

Total # of neighbors = 297733
Ave neighs/atom = 74.43325
Neighbor list builds = 0
Dangerous builds = 0
write_dump       all custom md/data/mg_hcp/dump_0.24_relaxed.gz id type x y z
#------------------------------------------------------------------------------#
Total wall time: 0:16:35
