LAMMPS (29 Aug 2024)
OMP_NUM_THREADS environment is not set. Defaulting to 1 thread. (src/comm.cpp:98)
  using 1 OpenMP thread(s) per MPI task
Lattice spacing in x,y,z = 3.2094 5.5588439 5.2409283
Created orthogonal box = (0 0 0) to (32.094 55.588439 52.409283)
  1 by 1 by 1 MPI processor grid
Created 4000 atoms
  using lattice units in orthogonal box = (0 0 0) to (32.094 55.588439 52.409283)
  create_atoms CPU = 0.000 seconds
Neighbor list info ...
  update: every = 1 steps, delay = 0 steps, check = yes
  max neighbors/atom: 2000, page size: 100000
  master list distance cutoff = 9.5
  ghost atom cutoff = 9.5
  binsize = 4.75, bins = 7 12 12
  1 neighbor lists, perpetual/occasional/extra = 1 0 0
  (1) pair eam/fs, perpetual
      attributes: half, newton on
      pair build: half/bin/atomonly/newton
      stencil: half/bin/3d
      bin: standard
Setting up Verlet run ...
  Unit style    : metal
  Current step  : 0
  Time step     : 0.001
Per MPI rank memory allocation (min/avg/max) = 4.363 | 4.363 | 4.363 Mbytes
   Step          Temp          E_pair         E_mol          TotEng         Press          Volume    
         0   1181.44       -6121.5966      0             -5510.8969     -2302.5957      93501.061    
     10000   1156.0529     -4848.6433      0             -4251.0665     -158.6523       109537.17    
Loop time of 95.8209 on 1 procs for 10000 steps with 4000 atoms

Performance: 9.017 ns/day, 2.662 hours/ns, 104.361 timesteps/s, 417.445 katom-step/s
99.6% CPU use with 1 MPI tasks x 1 OpenMP threads

MPI task timing breakdown:
Section |  min time  |  avg time  |  max time  |%varavg| %total
---------------------------------------------------------------
Pair    | 92.265     | 92.265     | 92.265     |   0.0 | 96.29
Neigh   | 2.0374     | 2.0374     | 2.0374     |   0.0 |  2.13
Comm    | 0.28547    | 0.28547    | 0.28547    |   0.0 |  0.30
Output  | 8.8917e-05 | 8.8917e-05 | 8.8917e-05 |   0.0 |  0.00
Modify  | 1.0999     | 1.0999     | 1.0999     |   0.0 |  1.15
Other   |            | 0.1327     |            |       |  0.14

Nlocal:           4000 ave        4000 max        4000 min
Histogram: 1 0 0 0 0 0 0 0 0 0
Nghost:           7090 ave        7090 max        7090 min
Histogram: 1 0 0 0 0 0 0 0 0 0
Neighs:         262288 ave      262288 max      262288 min
Histogram: 1 0 0 0 0 0 0 0 0 0

Total # of neighbors = 262288
Ave neighs/atom = 65.572
Neighbor list builds = 267
Dangerous builds = 0
Setting up Verlet run ...
  Unit style    : metal
  Current step  : 10000
  Time step     : 0.001
Per MPI rank memory allocation (min/avg/max) = 4.75 | 4.75 | 4.75 Mbytes
   Step          Temp          E_pair         E_mol          TotEng         Press          Volume    
     10000   1156.0529     -4848.6433      0             -4251.0665     -158.6523       109537.17    
    100000   1188.7397     -4840.4203      0             -4225.9473     -594.1351       109944.64    
Loop time of 858.229 on 1 procs for 90000 steps with 4000 atoms

Performance: 9.061 ns/day, 2.649 hours/ns, 104.867 timesteps/s, 419.468 katom-step/s
99.6% CPU use with 1 MPI tasks x 1 OpenMP threads

MPI task timing breakdown:
Section |  min time  |  avg time  |  max time  |%varavg| %total
---------------------------------------------------------------
Pair    | 826.17     | 826.17     | 826.17     |   0.0 | 96.27
Neigh   | 18.338     | 18.338     | 18.338     |   0.0 |  2.14
Comm    | 2.5537     | 2.5537     | 2.5537     |   0.0 |  0.30
Output  | 0.089999   | 0.089999   | 0.089999   |   0.0 |  0.01
Modify  | 9.8758     | 9.8758     | 9.8758     |   0.0 |  1.15
Other   |            | 1.197      |            |       |  0.14

Nlocal:           4000 ave        4000 max        4000 min
Histogram: 1 0 0 0 0 0 0 0 0 0
Nghost:           7076 ave        7076 max        7076 min
Histogram: 1 0 0 0 0 0 0 0 0 0
Neighs:         261590 ave      261590 max      261590 min
Histogram: 1 0 0 0 0 0 0 0 0 0

Total # of neighbors = 261590
Ave neighs/atom = 65.3975
Neighbor list builds = 2450
Dangerous builds = 0
Setting up cg style minimization ...
  Unit style    : metal
  Current step  : 100000
Per MPI rank memory allocation (min/avg/max) = 5.875 | 5.875 | 5.875 Mbytes
   Step          Temp          E_pair         E_mol          TotEng         Press          Volume    
    100000   1188.7397     -4840.4203      0             -4225.9473     -594.1351       109944.64    
    102966   1188.7397     -5705.1024      0             -5090.6293     -5473.5821      109944.64    
Loop time of 47.3233 on 1 procs for 2966 steps with 4000 atoms

99.6% CPU use with 1 MPI tasks x 1 OpenMP threads

Minimization stats:
  Stopping criterion = linesearch alpha is zero
  Energy initial, next-to-last, final = 
     -4840.42028662485  -5705.10236170563  -5705.10236170563
  Force two-norm initial, final = 55.036208 2.686682e-05
  Force max component initial, final = 2.2174308 3.0052018e-06
  Final line search alpha, max atom move = 3.3966675e-09 1.0207671e-14
  Iterations, force evaluations = 2966 4707

MPI task timing breakdown:
Section |  min time  |  avg time  |  max time  |%varavg| %total
---------------------------------------------------------------
Pair    | 46.27      | 46.27      | 46.27      |   0.0 | 97.77
Neigh   | 0.6244     | 0.6244     | 0.6244     |   0.0 |  1.32
Comm    | 0.13436    | 0.13436    | 0.13436    |   0.0 |  0.28
Output  | 0          | 0          | 0          |   0.0 |  0.00
Modify  | 0          | 0          | 0          |   0.0 |  0.00
Other   |            | 0.2945     |            |       |  0.62

Nlocal:           4000 ave        4000 max        4000 min
Histogram: 1 0 0 0 0 0 0 0 0 0
Nghost:           6916 ave        6916 max        6916 min
Histogram: 1 0 0 0 0 0 0 0 0 0
Neighs:         271298 ave      271298 max      271298 min
Histogram: 1 0 0 0 0 0 0 0 0 0

Total # of neighbors = 271298
Ave neighs/atom = 67.8245
Neighbor list builds = 86
Dangerous builds = 0
Total wall time: 0:16:41
