LAMMPS (29 Aug 2024)
OMP_NUM_THREADS environment is not set. Defaulting to 1 thread. (src/comm.cpp:98)
  using 1 OpenMP thread(s) per MPI task
Lattice spacing in x,y,z = 3.2094 5.5588439 5.2409283
Created orthogonal box = (0 0 0) to (32.094 55.588439 52.409283)
  1 by 1 by 1 MPI processor grid
Created 4000 atoms
  using lattice units in orthogonal box = (0 0 0) to (32.094 55.588439 52.409283)
  create_atoms CPU = 0.001 seconds
Neighbor list info ...
  update: every = 1 steps, delay = 0 steps, check = yes
  max neighbors/atom: 2000, page size: 100000
  master list distance cutoff = 9.5
  ghost atom cutoff = 9.5
  binsize = 4.75, bins = 7 12 12
  1 neighbor lists, perpetual/occasional/extra = 1 0 0
  (1) pair eam/fs, perpetual
      attributes: half, newton on
      pair build: half/bin/atomonly/newton
      stencil: half/bin/3d
      bin: standard
Setting up Verlet run ...
  Unit style    : metal
  Current step  : 0
  Time step     : 0.001
Per MPI rank memory allocation (min/avg/max) = 4.363 | 4.363 | 4.363 Mbytes
   Step          Temp          E_pair         E_mol          TotEng         Press          Volume    
         0   73.84         -6121.5966      0             -6083.4279     -8842.9542      93501.061    
     10000   72.924427     -6090.5518      0             -6052.8564     -231.28786      91536.248    
Loop time of 95.6949 on 1 procs for 10000 steps with 4000 atoms

Performance: 9.029 ns/day, 2.658 hours/ns, 104.499 timesteps/s, 417.995 katom-step/s
99.5% CPU use with 1 MPI tasks x 1 OpenMP threads

MPI task timing breakdown:
Section |  min time  |  avg time  |  max time  |%varavg| %total
---------------------------------------------------------------
Pair    | 94.195     | 94.195     | 94.195     |   0.0 | 98.43
Neigh   | 0.0089496  | 0.0089496  | 0.0089496  |   0.0 |  0.01
Comm    | 0.26879    | 0.26879    | 0.26879    |   0.0 |  0.28
Output  | 0.00018245 | 0.00018245 | 0.00018245 |   0.0 |  0.00
Modify  | 1.1047     | 1.1047     | 1.1047     |   0.0 |  1.15
Other   |            | 0.1176     |            |       |  0.12

Nlocal:           4000 ave        4000 max        4000 min
Histogram: 1 0 0 0 0 0 0 0 0 0
Nghost:           7546 ave        7546 max        7546 min
Histogram: 1 0 0 0 0 0 0 0 0 0
Neighs:         300984 ave      300984 max      300984 min
Histogram: 1 0 0 0 0 0 0 0 0 0

Total # of neighbors = 300984
Ave neighs/atom = 75.246
Neighbor list builds = 1
Dangerous builds = 0
Setting up Verlet run ...
  Unit style    : metal
  Current step  : 10000
  Time step     : 0.001
Per MPI rank memory allocation (min/avg/max) = 4.748 | 4.748 | 4.748 Mbytes
   Step          Temp          E_pair         E_mol          TotEng         Press          Volume    
     10000   72.924427     -6090.5518      0             -6052.8564     -231.28786      91536.248    
    100000   73.177505     -6089.4315      0             -6051.6052     -43.897653      91502.955    
Loop time of 865.311 on 1 procs for 90000 steps with 4000 atoms

Performance: 8.986 ns/day, 2.671 hours/ns, 104.009 timesteps/s, 416.035 katom-step/s
99.6% CPU use with 1 MPI tasks x 1 OpenMP threads

MPI task timing breakdown:
Section |  min time  |  avg time  |  max time  |%varavg| %total
---------------------------------------------------------------
Pair    | 851.71     | 851.71     | 851.71     |   0.0 | 98.43
Neigh   | 0          | 0          | 0          |   0.0 |  0.00
Comm    | 2.3929     | 2.3929     | 2.3929     |   0.0 |  0.28
Output  | 0.13575    | 0.13575    | 0.13575    |   0.0 |  0.02
Modify  | 10.035     | 10.035     | 10.035     |   0.0 |  1.16
Other   |            | 1.039      |            |       |  0.12

Nlocal:           4000 ave        4000 max        4000 min
Histogram: 1 0 0 0 0 0 0 0 0 0
Nghost:           7392 ave        7392 max        7392 min
Histogram: 1 0 0 0 0 0 0 0 0 0
Neighs:         296891 ave      296891 max      296891 min
Histogram: 1 0 0 0 0 0 0 0 0 0

Total # of neighbors = 296891
Ave neighs/atom = 74.22275
Neighbor list builds = 0
Dangerous builds = 0
Setting up cg style minimization ...
  Unit style    : metal
  Current step  : 100000
Per MPI rank memory allocation (min/avg/max) = 5.873 | 5.873 | 5.873 Mbytes
   Step          Temp          E_pair         E_mol          TotEng         Press          Volume    
    100000   73.177505     -6089.4315      0             -6051.6052     -43.897653      91502.955    
    100101   73.177505     -6128.2253      0             -6090.399      -949.10834      91502.955    
Loop time of 1.94824 on 1 procs for 101 steps with 4000 atoms

99.6% CPU use with 1 MPI tasks x 1 OpenMP threads

Minimization stats:
  Stopping criterion = linesearch alpha is zero
  Energy initial, next-to-last, final = 
     -6089.43146527784  -6128.22529788996  -6128.22529788996
  Force two-norm initial, final = 17.701416 1.0060505e-05
  Force max component initial, final = 0.58450303 3.563836e-07
  Final line search alpha, max atom move = 0.03888849 1.385922e-08
  Iterations, force evaluations = 101 211

MPI task timing breakdown:
Section |  min time  |  avg time  |  max time  |%varavg| %total
---------------------------------------------------------------
Pair    | 1.9319     | 1.9319     | 1.9319     |   0.0 | 99.16
Neigh   | 0          | 0          | 0          |   0.0 |  0.00
Comm    | 0.0055832  | 0.0055832  | 0.0055832  |   0.0 |  0.29
Output  | 0          | 0          | 0          |   0.0 |  0.00
Modify  | 0          | 0          | 0          |   0.0 |  0.00
Other   |            | 0.01076    |            |       |  0.55

Nlocal:           4000 ave        4000 max        4000 min
Histogram: 1 0 0 0 0 0 0 0 0 0
Nghost:           7381 ave        7381 max        7381 min
Histogram: 1 0 0 0 0 0 0 0 0 0
Neighs:         296985 ave      296985 max      296985 min
Histogram: 1 0 0 0 0 0 0 0 0 0

Total # of neighbors = 296985
Ave neighs/atom = 74.24625
Neighbor list builds = 0
Dangerous builds = 0
Total wall time: 0:16:03
