LAMMPS (29 Aug 2024)
OMP_NUM_THREADS environment is not set. Defaulting to 1 thread. (src/comm.cpp:98)
  using 1 OpenMP thread(s) per MPI task

#---------------------------- Atomic setup ------------------------------------#
units            metal
timestep         0.001
boundary         p p p
lattice          hcp 3.2094
Lattice spacing in x,y,z = 3.2094 5.5588439 5.2409283
region           sim_box block 0 10 0 10 0 10
create_box       1 sim_box
Created orthogonal box = (0 0 0) to (32.094 55.588439 52.409283)
  1 by 1 by 1 MPI processor grid
create_atoms     1 box
Created 4000 atoms
  using lattice units in orthogonal box = (0 0 0) to (32.094 55.588439 52.409283)
  create_atoms CPU = 0.001 seconds

pair_style       eam/fs                                             # interatomic potential (Lennard-Jones, EAM, etc.)
pair_coeff       * * ${potentials_dir}/mg_eam.fs Mg # interatomic potential parameters (ex. eam.alloy Cu_u3.eam)
pair_coeff       * * md/potentials/mg_eam.fs Mg 
pair_modify      tail yes
neigh_modify     delay 0                                                       # neighbor list update frequency (0 = every timestep)
mass             1 24.305                                                 # atomic mass
variable         rnd equal round(random(0,999999,42))

#----------------------------- Equilibriation ---------------------------------#
velocity         all create 295.36 ${rnd} dist gaussian              # initial velocities
velocity         all create 295.36 420940 dist gaussian              
fix              f2 all nph iso 0 0 1.0        # barostat
variable         rnd equal round(random(0,999999,0))
fix              f3 all temp/csvr 295.36 295.36 0.1 ${rnd} # thermostat
fix              f3 all temp/csvr 295.36 295.36 0.1 53464 
run              10000                                           # equilibriation run
Neighbor list info ...
  update: every = 1 steps, delay = 0 steps, check = yes
  max neighbors/atom: 2000, page size: 100000
  master list distance cutoff = 9.5
  ghost atom cutoff = 9.5
  binsize = 4.75, bins = 7 12 12
  1 neighbor lists, perpetual/occasional/extra = 1 0 0
  (1) pair eam/fs, perpetual
      attributes: half, newton on
      pair build: half/bin/atomonly/newton
      stencil: half/bin/3d
      bin: standard
Per MPI rank memory allocation (min/avg/max) = 4.363 | 4.363 | 4.363 Mbytes
   Step          Temp          E_pair         E_mol          TotEng         Press          Volume    
         0   295.36        -6121.5966      0             -5968.9217     -7534.8825      93501.061    
     10000   290.91309     -5967.6732      0             -5817.2969     -524.57109      92810.559    
Loop time of 100.388 on 1 procs for 10000 steps with 4000 atoms

Performance: 8.607 ns/day, 2.789 hours/ns, 99.613 timesteps/s, 398.454 katom-step/s
99.5% CPU use with 1 MPI tasks x 1 OpenMP threads

MPI task timing breakdown:
Section |  min time  |  avg time  |  max time  |%varavg| %total
---------------------------------------------------------------
Pair    | 98.879     | 98.879     | 98.879     |   0.0 | 98.50
Neigh   | 0.017549   | 0.017549   | 0.017549   |   0.0 |  0.02
Comm    | 0.26861    | 0.26861    | 0.26861    |   0.0 |  0.27
Output  | 0.00018545 | 0.00018545 | 0.00018545 |   0.0 |  0.00
Modify  | 1.1041     | 1.1041     | 1.1041     |   0.0 |  1.10
Other   |            | 0.119      |            |       |  0.12

Nlocal:           4000 ave        4000 max        4000 min
Histogram: 1 0 0 0 0 0 0 0 0 0
Nghost:           7445 ave        7445 max        7445 min
Histogram: 1 0 0 0 0 0 0 0 0 0
Neighs:         297903 ave      297903 max      297903 min
Histogram: 1 0 0 0 0 0 0 0 0 0

Total # of neighbors = 297903
Ave neighs/atom = 74.47575
Neighbor list builds = 2
Dangerous builds = 0

#----------------------------- Run simulation ---------------------------------#
dump             d1 all custom 10000 md/data/mg_hcp/dump_0.32.gz id type x y z # snapshots
run              90000
Per MPI rank memory allocation (min/avg/max) = 4.748 | 4.748 | 4.748 Mbytes
   Step          Temp          E_pair         E_mol          TotEng         Press          Volume    
     10000   290.91309     -5967.6732      0             -5817.2969     -524.57109      92810.559    
    100000   293.50343     -5963.4801      0             -5811.7649      22.282392      92683.731    
Loop time of 894.423 on 1 procs for 90000 steps with 4000 atoms

Performance: 8.694 ns/day, 2.761 hours/ns, 100.624 timesteps/s, 402.494 katom-step/s
99.6% CPU use with 1 MPI tasks x 1 OpenMP threads

MPI task timing breakdown:
Section |  min time  |  avg time  |  max time  |%varavg| %total
---------------------------------------------------------------
Pair    | 880.73     | 880.73     | 880.73     |   0.0 | 98.47
Neigh   | 0.041603   | 0.041603   | 0.041603   |   0.0 |  0.00
Comm    | 2.3955     | 2.3955     | 2.3955     |   0.0 |  0.27
Output  | 0.13584    | 0.13584    | 0.13584    |   0.0 |  0.02
Modify  | 10.054     | 10.054     | 10.054     |   0.0 |  1.12
Other   |            | 1.069      |            |       |  0.12

Nlocal:           4000 ave        4000 max        4000 min
Histogram: 1 0 0 0 0 0 0 0 0 0
Nghost:           7452 ave        7452 max        7452 min
Histogram: 1 0 0 0 0 0 0 0 0 0
Neighs:         297012 ave      297012 max      297012 min
Histogram: 1 0 0 0 0 0 0 0 0 0

Total # of neighbors = 297012
Ave neighs/atom = 74.253
Neighbor list builds = 5
Dangerous builds = 0
undump           d1
min_modify       line forcezero
minimize         0 0 100000 100000                                                                               # minimize energy
Per MPI rank memory allocation (min/avg/max) = 5.873 | 5.873 | 5.873 Mbytes
   Step          Temp          E_pair         E_mol          TotEng         Press          Volume    
    100000   293.50343     -5963.4801      0             -5811.7649      22.282392      92683.731    
    100099   293.50343     -6125.4978      0             -5973.7825     -4274.7709      92683.731    
Loop time of 1.83055 on 1 procs for 99 steps with 4000 atoms

99.7% CPU use with 1 MPI tasks x 1 OpenMP threads

Minimization stats:
  Stopping criterion = linesearch alpha is zero
  Energy initial, next-to-last, final = 
     -5963.48013577592  -6125.49779474133  -6125.49779474133
  Force two-norm initial, final = 34.132716 3.174509e-05
  Force max component initial, final = 1.2191119 1.0997038e-06
  Final line search alpha, max atom move = 5.9695136e-06 6.5646966e-12
  Iterations, force evaluations = 99 203

MPI task timing breakdown:
Section |  min time  |  avg time  |  max time  |%varavg| %total
---------------------------------------------------------------
Pair    | 1.8146     | 1.8146     | 1.8146     |   0.0 | 99.13
Neigh   | 0          | 0          | 0          |   0.0 |  0.00
Comm    | 0.0054574  | 0.0054574  | 0.0054574  |   0.0 |  0.30
Output  | 0          | 0          | 0          |   0.0 |  0.00
Modify  | 0          | 0          | 0          |   0.0 |  0.00
Other   |            | 0.01048    |            |       |  0.57

Nlocal:           4000 ave        4000 max        4000 min
Histogram: 1 0 0 0 0 0 0 0 0 0
Nghost:           7415 ave        7415 max        7415 min
Histogram: 1 0 0 0 0 0 0 0 0 0
Neighs:         297237 ave      297237 max      297237 min
Histogram: 1 0 0 0 0 0 0 0 0 0

Total # of neighbors = 297237
Ave neighs/atom = 74.30925
Neighbor list builds = 0
Dangerous builds = 0
write_dump       all custom md/data/mg_hcp/dump_0.32_relaxed.gz id type x y z
#------------------------------------------------------------------------------#
Total wall time: 0:16:36
