LAMMPS (29 Aug 2024)
OMP_NUM_THREADS environment is not set. Defaulting to 1 thread. (src/comm.cpp:98)
  using 1 OpenMP thread(s) per MPI task
Lattice spacing in x,y,z = 3.2094 5.5588439 5.2409283
Created orthogonal box = (0 0 0) to (32.094 55.588439 52.409283)
  1 by 1 by 1 MPI processor grid
Created 4000 atoms
  using lattice units in orthogonal box = (0 0 0) to (32.094 55.588439 52.409283)
  create_atoms CPU = 0.001 seconds
Neighbor list info ...
  update: every = 1 steps, delay = 0 steps, check = yes
  max neighbors/atom: 2000, page size: 100000
  master list distance cutoff = 9.5
  ghost atom cutoff = 9.5
  binsize = 4.75, bins = 7 12 12
  1 neighbor lists, perpetual/occasional/extra = 1 0 0
  (1) pair eam/fs, perpetual
      attributes: half, newton on
      pair build: half/bin/atomonly/newton
      stencil: half/bin/3d
      bin: standard
Setting up Verlet run ...
  Unit style    : metal
  Current step  : 0
  Time step     : 0.001
Per MPI rank memory allocation (min/avg/max) = 4.363 | 4.363 | 4.363 Mbytes
   Step          Temp          E_pair         E_mol          TotEng         Press          Volume    
         0   1476.8        -6121.5966      0             -5358.222      -558.50016      93501.061    
     10000   1469.2086     -4487.7419      0             -3728.2913      275.08497      123401.14    
Loop time of 88.6304 on 1 procs for 10000 steps with 4000 atoms

Performance: 9.748 ns/day, 2.462 hours/ns, 112.828 timesteps/s, 451.313 katom-step/s
99.6% CPU use with 1 MPI tasks x 1 OpenMP threads

MPI task timing breakdown:
Section |  min time  |  avg time  |  max time  |%varavg| %total
---------------------------------------------------------------
Pair    | 84.911     | 84.911     | 84.911     |   0.0 | 95.80
Neigh   | 2.2042     | 2.2042     | 2.2042     |   0.0 |  2.49
Comm    | 0.28336    | 0.28336    | 0.28336    |   0.0 |  0.32
Output  | 7.42e-05   | 7.42e-05   | 7.42e-05   |   0.0 |  0.00
Modify  | 1.1049     | 1.1049     | 1.1049     |   0.0 |  1.25
Other   |            | 0.1269     |            |       |  0.14

Nlocal:           4000 ave        4000 max        4000 min
Histogram: 1 0 0 0 0 0 0 0 0 0
Nghost:           6696 ave        6696 max        6696 min
Histogram: 1 0 0 0 0 0 0 0 0 0
Neighs:         232503 ave      232503 max      232503 min
Histogram: 1 0 0 0 0 0 0 0 0 0

Total # of neighbors = 232503
Ave neighs/atom = 58.12575
Neighbor list builds = 305
Dangerous builds = 0
Setting up Verlet run ...
  Unit style    : metal
  Current step  : 10000
  Time step     : 0.001
Per MPI rank memory allocation (min/avg/max) = 4.751 | 4.751 | 4.751 Mbytes
   Step          Temp          E_pair         E_mol          TotEng         Press          Volume    
     10000   1469.2086     -4487.7419      0             -3728.2913      275.08497      123401.14    
    100000   1460.5089     -4441.2159      0             -3686.2623     -359.42937      125081.89    
Loop time of 778.684 on 1 procs for 90000 steps with 4000 atoms

Performance: 9.986 ns/day, 2.403 hours/ns, 115.580 timesteps/s, 462.319 katom-step/s
99.6% CPU use with 1 MPI tasks x 1 OpenMP threads

MPI task timing breakdown:
Section |  min time  |  avg time  |  max time  |%varavg| %total
---------------------------------------------------------------
Pair    | 745.14     | 745.14     | 745.14     |   0.0 | 95.69
Neigh   | 19.799     | 19.799     | 19.799     |   0.0 |  2.54
Comm    | 2.5155     | 2.5155     | 2.5155     |   0.0 |  0.32
Output  | 0.094236   | 0.094236   | 0.094236   |   0.0 |  0.01
Modify  | 9.9703     | 9.9703     | 9.9703     |   0.0 |  1.28
Other   |            | 1.161      |            |       |  0.15

Nlocal:           4000 ave        4000 max        4000 min
Histogram: 1 0 0 0 0 0 0 0 0 0
Nghost:           6636 ave        6636 max        6636 min
Histogram: 1 0 0 0 0 0 0 0 0 0
Neighs:         229010 ave      229010 max      229010 min
Histogram: 1 0 0 0 0 0 0 0 0 0

Total # of neighbors = 229010
Ave neighs/atom = 57.2525
Neighbor list builds = 2781
Dangerous builds = 0
Setting up cg style minimization ...
  Unit style    : metal
  Current step  : 100000
Per MPI rank memory allocation (min/avg/max) = 5.876 | 5.876 | 5.876 Mbytes
   Step          Temp          E_pair         E_mol          TotEng         Press          Volume    
    100000   1460.5089     -4441.2159      0             -3686.2623     -359.42937      125081.89    
    103158   1460.5089     -5589.0831      0             -4834.1295     -1497.5446      125081.89    
Loop time of 45.2961 on 1 procs for 3158 steps with 4000 atoms

99.6% CPU use with 1 MPI tasks x 1 OpenMP threads

Minimization stats:
  Stopping criterion = linesearch alpha is zero
  Energy initial, next-to-last, final = 
     -4441.21585241481  -5589.08307914077  -5589.08307914077
  Force two-norm initial, final = 55.900211 5.6156524e-05
  Force max component initial, final = 2.2638933 1.4257959e-05
  Final line search alpha, max atom move = 0.16845324 2.4017994e-06
  Iterations, force evaluations = 3158 4943

MPI task timing breakdown:
Section |  min time  |  avg time  |  max time  |%varavg| %total
---------------------------------------------------------------
Pair    | 44.182     | 44.182     | 44.182     |   0.0 | 97.54
Neigh   | 0.67507    | 0.67507    | 0.67507    |   0.0 |  1.49
Comm    | 0.13283    | 0.13283    | 0.13283    |   0.0 |  0.29
Output  | 0          | 0          | 0          |   0.0 |  0.00
Modify  | 0          | 0          | 0          |   0.0 |  0.00
Other   |            | 0.3061     |            |       |  0.68

Nlocal:           4000 ave        4000 max        4000 min
Histogram: 1 0 0 0 0 0 0 0 0 0
Nghost:           6463 ave        6463 max        6463 min
Histogram: 1 0 0 0 0 0 0 0 0 0
Neighs:         244582 ave      244582 max      244582 min
Histogram: 1 0 0 0 0 0 0 0 0 0

Total # of neighbors = 244582
Ave neighs/atom = 61.1455
Neighbor list builds = 99
Dangerous builds = 0
Total wall time: 0:15:12
