LAMMPS (29 Aug 2024)
OMP_NUM_THREADS environment is not set. Defaulting to 1 thread. (src/comm.cpp:98)
  using 1 OpenMP thread(s) per MPI task
Lattice spacing in x,y,z = 3.2094 5.5588439 5.2409283
Created orthogonal box = (0 0 0) to (32.094 55.588439 52.409283)
  1 by 1 by 1 MPI processor grid
Created 4000 atoms
  using lattice units in orthogonal box = (0 0 0) to (32.094 55.588439 52.409283)
  create_atoms CPU = 0.001 seconds
Neighbor list info ...
  update: every = 1 steps, delay = 0 steps, check = yes
  max neighbors/atom: 2000, page size: 100000
  master list distance cutoff = 9.5
  ghost atom cutoff = 9.5
  binsize = 4.75, bins = 7 12 12
  1 neighbor lists, perpetual/occasional/extra = 1 0 0
  (1) pair eam/fs, perpetual
      attributes: half, newton on
      pair build: half/bin/atomonly/newton
      stencil: half/bin/3d
      bin: standard
Setting up Verlet run ...
  Unit style    : metal
  Current step  : 0
  Time step     : 0.001
Per MPI rank memory allocation (min/avg/max) = 4.363 | 4.363 | 4.363 Mbytes
   Step          Temp          E_pair         E_mol          TotEng         Press          Volume    
         0   36.92         -6121.5966      0             -6102.5122     -9060.9661      93501.061    
     10000   35.923042     -6109.4279      0             -6090.8589     -82.394829      91322.041    
Loop time of 93.7075 on 1 procs for 10000 steps with 4000 atoms

Performance: 9.220 ns/day, 2.603 hours/ns, 106.715 timesteps/s, 426.860 katom-step/s
99.4% CPU use with 1 MPI tasks x 1 OpenMP threads

MPI task timing breakdown:
Section |  min time  |  avg time  |  max time  |%varavg| %total
---------------------------------------------------------------
Pair    | 92.2       | 92.2       | 92.2       |   0.0 | 98.39
Neigh   | 0.0088809  | 0.0088809  | 0.0088809  |   0.0 |  0.01
Comm    | 0.27196    | 0.27196    | 0.27196    |   0.0 |  0.29
Output  | 0.00019396 | 0.00019396 | 0.00019396 |   0.0 |  0.00
Modify  | 1.1049     | 1.1049     | 1.1049     |   0.0 |  1.18
Other   |            | 0.1214     |            |       |  0.13

Nlocal:           4000 ave        4000 max        4000 min
Histogram: 1 0 0 0 0 0 0 0 0 0
Nghost:           7536 ave        7536 max        7536 min
Histogram: 1 0 0 0 0 0 0 0 0 0
Neighs:         300600 ave      300600 max      300600 min
Histogram: 1 0 0 0 0 0 0 0 0 0

Total # of neighbors = 300600
Ave neighs/atom = 75.15
Neighbor list builds = 1
Dangerous builds = 0
Setting up Verlet run ...
  Unit style    : metal
  Current step  : 10000
  Time step     : 0.001
Per MPI rank memory allocation (min/avg/max) = 4.748 | 4.748 | 4.748 Mbytes
   Step          Temp          E_pair         E_mol          TotEng         Press          Volume    
     10000   35.923042     -6109.4279      0             -6090.8589     -82.394829      91322.041    
    100000   36.667286     -6109.0876      0             -6090.1339      47.041999      91294.706    
Loop time of 832.9 on 1 procs for 90000 steps with 4000 atoms

Performance: 9.336 ns/day, 2.571 hours/ns, 108.056 timesteps/s, 432.225 katom-step/s
99.4% CPU use with 1 MPI tasks x 1 OpenMP threads

MPI task timing breakdown:
Section |  min time  |  avg time  |  max time  |%varavg| %total
---------------------------------------------------------------
Pair    | 819.12     | 819.12     | 819.12     |   0.0 | 98.35
Neigh   | 0          | 0          | 0          |   0.0 |  0.00
Comm    | 2.46       | 2.46       | 2.46       |   0.0 |  0.30
Output  | 0.13612    | 0.13612    | 0.13612    |   0.0 |  0.02
Modify  | 10.093     | 10.093     | 10.093     |   0.0 |  1.21
Other   |            | 1.09       |            |       |  0.13

Nlocal:           4000 ave        4000 max        4000 min
Histogram: 1 0 0 0 0 0 0 0 0 0
Nghost:           7376 ave        7376 max        7376 min
Histogram: 1 0 0 0 0 0 0 0 0 0
Neighs:         295778 ave      295778 max      295778 min
Histogram: 1 0 0 0 0 0 0 0 0 0

Total # of neighbors = 295778
Ave neighs/atom = 73.9445
Neighbor list builds = 0
Dangerous builds = 0
Setting up cg style minimization ...
  Unit style    : metal
  Current step  : 100000
Per MPI rank memory allocation (min/avg/max) = 5.873 | 5.873 | 5.873 Mbytes
   Step          Temp          E_pair         E_mol          TotEng         Press          Volume    
    100000   36.667286     -6109.0876      0             -6090.1339      47.041999      91294.706    
    100098   36.667286     -6128.3534      0             -6109.3996     -358.23282      91294.706    
Loop time of 1.87425 on 1 procs for 98 steps with 4000 atoms

99.4% CPU use with 1 MPI tasks x 1 OpenMP threads

Minimization stats:
  Stopping criterion = linesearch alpha is zero
  Energy initial, next-to-last, final = 
     -6109.08761458194  -6128.35335453128  -6128.35335453128
  Force two-norm initial, final = 12.582092 2.3540709e-05
  Force max component initial, final = 0.46346921 8.947773e-07
  Final line search alpha, max atom move = 0 0
  Iterations, force evaluations = 98 203

MPI task timing breakdown:
Section |  min time  |  avg time  |  max time  |%varavg| %total
---------------------------------------------------------------
Pair    | 1.8574     | 1.8574     | 1.8574     |   0.0 | 99.10
Neigh   | 0          | 0          | 0          |   0.0 |  0.00
Comm    | 0.0055759  | 0.0055759  | 0.0055759  |   0.0 |  0.30
Output  | 0          | 0          | 0          |   0.0 |  0.00
Modify  | 0          | 0          | 0          |   0.0 |  0.00
Other   |            | 0.01131    |            |       |  0.60

Nlocal:           4000 ave        4000 max        4000 min
Histogram: 1 0 0 0 0 0 0 0 0 0
Nghost:           7351 ave        7351 max        7351 min
Histogram: 1 0 0 0 0 0 0 0 0 0
Neighs:         295686 ave      295686 max      295686 min
Histogram: 1 0 0 0 0 0 0 0 0 0

Total # of neighbors = 295686
Ave neighs/atom = 73.9215
Neighbor list builds = 0
Dangerous builds = 0
Total wall time: 0:15:28
