LAMMPS (29 Aug 2024)
OMP_NUM_THREADS environment is not set. Defaulting to 1 thread. (src/comm.cpp:98)
  using 1 OpenMP thread(s) per MPI task

#---------------------------- Atomic setup ------------------------------------#
units            metal
timestep         0.001
boundary         p p p
lattice          hcp 3.2094
Lattice spacing in x,y,z = 3.2094 5.5588439 5.2409283
region           sim_box block 0 10 0 10 0 10
create_box       1 sim_box
Created orthogonal box = (0 0 0) to (32.094 55.588439 52.409283)
  1 by 1 by 1 MPI processor grid
create_atoms     1 box
Created 4000 atoms
  using lattice units in orthogonal box = (0 0 0) to (32.094 55.588439 52.409283)
  create_atoms CPU = 0.000 seconds

pair_style       eam/fs                                             # interatomic potential (Lennard-Jones, EAM, etc.)
pair_coeff       * * ${potentials_dir}/mg_eam.fs Mg # interatomic potential parameters (ex. eam.alloy Cu_u3.eam)
pair_coeff       * * md/potentials/mg_eam.fs Mg 
pair_modify      tail yes
neigh_modify     delay 0                                                       # neighbor list update frequency (0 = every timestep)
mass             1 24.305                                                 # atomic mass
variable         rnd equal round(random(0,999999,42))

#----------------------------- Equilibriation ---------------------------------#
velocity         all create 590.72 ${rnd} dist gaussian              # initial velocities
velocity         all create 590.72 420940 dist gaussian              
fix              f2 all nph iso 0 0 1.0        # barostat
variable         rnd equal round(random(0,999999,0))
fix              f3 all temp/csvr 590.72 590.72 0.1 ${rnd} # thermostat
fix              f3 all temp/csvr 590.72 590.72 0.1 53464 
run              10000                                           # equilibriation run
Neighbor list info ...
  update: every = 1 steps, delay = 0 steps, check = yes
  max neighbors/atom: 2000, page size: 100000
  master list distance cutoff = 9.5
  ghost atom cutoff = 9.5
  binsize = 4.75, bins = 7 12 12
  1 neighbor lists, perpetual/occasional/extra = 1 0 0
  (1) pair eam/fs, perpetual
      attributes: half, newton on
      pair build: half/bin/atomonly/newton
      stencil: half/bin/3d
      bin: standard
Per MPI rank memory allocation (min/avg/max) = 4.363 | 4.363 | 4.363 Mbytes
   Step          Temp          E_pair         E_mol          TotEng         Press          Volume    
         0   590.72        -6121.5966      0             -5816.2467     -5790.7869      93501.061    
     10000   578.10104     -5786.9173      0             -5488.0903     -598.2767       94554.627    
Loop time of 99.2904 on 1 procs for 10000 steps with 4000 atoms

Performance: 8.702 ns/day, 2.758 hours/ns, 100.715 timesteps/s, 402.859 katom-step/s
99.5% CPU use with 1 MPI tasks x 1 OpenMP threads

MPI task timing breakdown:
Section |  min time  |  avg time  |  max time  |%varavg| %total
---------------------------------------------------------------
Pair    | 96.411     | 96.411     | 96.411     |   0.0 | 97.10
Neigh   | 1.3665     | 1.3665     | 1.3665     |   0.0 |  1.38
Comm    | 0.28658    | 0.28658    | 0.28658    |   0.0 |  0.29
Output  | 8.505e-05  | 8.505e-05  | 8.505e-05  |   0.0 |  0.00
Modify  | 1.1015     | 1.1015     | 1.1015     |   0.0 |  1.11
Other   |            | 0.1244     |            |       |  0.13

Nlocal:           4000 ave        4000 max        4000 min
Histogram: 1 0 0 0 0 0 0 0 0 0
Nghost:           7435 ave        7435 max        7435 min
Histogram: 1 0 0 0 0 0 0 0 0 0
Neighs:         294196 ave      294196 max      294196 min
Histogram: 1 0 0 0 0 0 0 0 0 0

Total # of neighbors = 294196
Ave neighs/atom = 73.549
Neighbor list builds = 169
Dangerous builds = 0

#----------------------------- Run simulation ---------------------------------#
dump             d1 all custom 10000 md/data/mg_hcp/dump_0.64.gz id type x y z # snapshots
run              90000
Per MPI rank memory allocation (min/avg/max) = 4.748 | 4.748 | 4.748 Mbytes
   Step          Temp          E_pair         E_mol          TotEng         Press          Volume    
     10000   578.10104     -5786.9173      0             -5488.0903     -598.2767       94554.627    
    100000   587.83524     -5780.1339      0             -5476.2752      257.20389      94352.842    
Loop time of 889.431 on 1 procs for 90000 steps with 4000 atoms

Performance: 8.743 ns/day, 2.745 hours/ns, 101.188 timesteps/s, 404.753 katom-step/s
99.6% CPU use with 1 MPI tasks x 1 OpenMP threads

MPI task timing breakdown:
Section |  min time  |  avg time  |  max time  |%varavg| %total
---------------------------------------------------------------
Pair    | 863.25     | 863.25     | 863.25     |   0.0 | 97.06
Neigh   | 12.392     | 12.392     | 12.392     |   0.0 |  1.39
Comm    | 2.5524     | 2.5524     | 2.5524     |   0.0 |  0.29
Output  | 0.084516   | 0.084516   | 0.084516   |   0.0 |  0.01
Modify  | 9.9789     | 9.9789     | 9.9789     |   0.0 |  1.12
Other   |            | 1.178      |            |       |  0.13

Nlocal:           4000 ave        4000 max        4000 min
Histogram: 1 0 0 0 0 0 0 0 0 0
Nghost:           7425 ave        7425 max        7425 min
Histogram: 1 0 0 0 0 0 0 0 0 0
Neighs:         294467 ave      294467 max      294467 min
Histogram: 1 0 0 0 0 0 0 0 0 0

Total # of neighbors = 294467
Ave neighs/atom = 73.61675
Neighbor list builds = 1524
Dangerous builds = 0
undump           d1
min_modify       line forcezero
minimize         0 0 100000 100000                                                                               # minimize energy
Per MPI rank memory allocation (min/avg/max) = 5.876 | 5.876 | 5.876 Mbytes
   Step          Temp          E_pair         E_mol          TotEng         Press          Volume    
    100000   587.83524     -5780.1339      0             -5476.2752      257.20389      94352.842    
    100095   587.83524     -6115.7511      0             -5811.8924     -9279.5032      94352.842    
Loop time of 1.70706 on 1 procs for 95 steps with 4000 atoms

99.7% CPU use with 1 MPI tasks x 1 OpenMP threads

Minimization stats:
  Stopping criterion = linesearch alpha is zero
  Energy initial, next-to-last, final = 
     -5780.13387425888   -6115.7510810814   -6115.7510810814
  Force two-norm initial, final = 46.43161 1.9773445e-05
  Force max component initial, final = 1.81377 6.7549855e-07
  Final line search alpha, max atom move = 0.041738574 2.8194346e-08
  Iterations, force evaluations = 95 193

MPI task timing breakdown:
Section |  min time  |  avg time  |  max time  |%varavg| %total
---------------------------------------------------------------
Pair    | 1.6923     | 1.6923     | 1.6923     |   0.0 | 99.13
Neigh   | 0          | 0          | 0          |   0.0 |  0.00
Comm    | 0.0050571  | 0.0050571  | 0.0050571  |   0.0 |  0.30
Output  | 0          | 0          | 0          |   0.0 |  0.00
Modify  | 0          | 0          | 0          |   0.0 |  0.00
Other   |            | 0.009738   |            |       |  0.57

Nlocal:           4000 ave        4000 max        4000 min
Histogram: 1 0 0 0 0 0 0 0 0 0
Nghost:           7419 ave        7419 max        7419 min
Histogram: 1 0 0 0 0 0 0 0 0 0
Neighs:         294283 ave      294283 max      294283 min
Histogram: 1 0 0 0 0 0 0 0 0 0

Total # of neighbors = 294283
Ave neighs/atom = 73.57075
Neighbor list builds = 0
Dangerous builds = 0
write_dump       all custom md/data/mg_hcp/dump_0.64_relaxed.gz id type x y z
#------------------------------------------------------------------------------#
Total wall time: 0:16:30
